<?xml version="1.0" encoding="UTF-8"?>

<!-- generated on 2026-04-22T17:59:23.581253+01:00 by Eclipse SUMO sumo 1.26.0
<sumoConfiguration xmlns:xsi="http://www.w3.org/2001/XMLSchema-instance" xsi:noNamespaceSchemaLocation="http://sumo.dlr.de/xsd/sumoConfiguration.xsd">

    <input>
        <net-file value="scenarios/bologna_joined/joined_buslanes.net.xml"/>
        <route-files value="scenarios/bologna_joined/joined.rou.xml,scenarios/bologna_joined/joined_busses.rou.xml"/>
        <additional-files value="scenarios/bologna_joined/joined_bus_stops.add.xml,scenarios/bologna_joined/joined_detectors.add.xml,scenarios/bologna_joined/joined_vtypes.add.xml,scenarios/bologna_joined/joined_tls.add.xml"/>
    </input>

    <output>
        <tripinfo-output value="scenarios/bologna_joined/tripinfos.xml"/>
        <save-state.prefix value="scenarios/bologna_joined/state"/>
    </output>

    <processing>
        <collision.action value="warn"/>
        <collision.check-junctions value="true"/>
        <collision.mingap-factor value="0"/>
    </processing>

    <report>
        <aggregate-warnings value="5"/>
        <log value="sim_logs/sumo.log"/>
        <log.timestamps value="true"/>
        <no-step-log value="true"/>
    </report>

    <traci_server>
        <remote-port value="34123"/>
    </traci_server>

</sumoConfiguration>
-->

<tripinfos xmlns:xsi="http://www.w3.org/2001/XMLSchema-instance" xsi:noNamespaceSchemaLocation="http://sumo.dlr.de/xsd/tripinfo_file.xsd">
    <tripinfo id="Pertini_20_7" depart="15.00" departLane="b63[0]_2" departPos="0.00" departSpeed="0.00" departDelay="0.00" arrival="84.00" arrivalLane="b4[1][1][1]_0" arrivalPos="170.54" arrivalSpeed="14.21" duration="69.00" routeLength="895.82" waitingTime="0.00" waitingCount="0" stopTime="0.00" timeLoss="6.04" rerouteNo="0" devices="tripinfo_Pertini_20_7" vType="passenger1" speedFactor="1.04" vaporized=""/>
    <tripinfo id="Pertini_20_9" depart="19.00" departLane="b63[0]_1" departPos="0.00" departSpeed="0.00" departDelay="0.00" arrival="85.00" arrivalLane="b4[1][1][1]_1" arrivalPos="170.54" arrivalSpeed="14.14" duration="66.00" routeLength="895.82" waitingTime="0.00" waitingCount="0" stopTime="0.00" timeLoss="6.89" rerouteNo="0" devices="tripinfo_Pertini_20_9" vType="passenger2a" speedFactor="1.10" vaporized=""/>
    <tripinfo id="Prati_Capraia_10_7" depart="34.00" departLane="b3[0]_0" departPos="0.00" departSpeed="0.00" departDelay="0.00" arrival="85.00" arrivalLane="b10_0" arrivalPos="223.30" arrivalSpeed="14.18" duration="51.00" routeLength="409.63" waitingTime="10.00" waitingCount="1" stopTime="0.00" timeLoss="21.68" rerouteNo="0" devices="tripinfo_Prati_Capraia_10_7" vType="passenger1" speedFactor="1.06" vaporized=""/>
    <tripinfo id="Pertini_20_11" depart="23.00" departLane="b63[0]_1" departPos="0.00" departSpeed="0.00" departDelay="0.00" arrival="86.00" arrivalLane="b4[1][1][1]_1" arrivalPos="170.54" arrivalSpeed="15.85" duration="63.00" routeLength="895.82" waitingTime="0.00" waitingCount="0" stopTime="0.00" timeLoss="7.63" rerouteNo="0" devices="tripinfo_Pertini_20_11" vType="passenger2a" speedFactor="1.17" vaporized=""/>
    <tripinfo id="Pepoli_8_16" depart="27.00" departLane="a210_0" departPos="0.00" departSpeed="0.00" departDelay="0.00" arrival="91.00" arrivalLane="a134b_0" arrivalPos="156.17" arrivalSpeed="11.60" duration="64.00" routeLength="692.71" waitingTime="0.00" waitingCount="0" stopTime="0.00" timeLoss="7.63" rerouteNo="0" devices="tripinfo_Pepoli_8_16" vType="passenger2a" speedFactor="0.91" vaporized=""/>
    <tripinfo id="Prati_Capraia_100_3" depart="14.00" departLane="b3[0]_0" departPos="0.00" departSpeed="0.00" departDelay="0.00" arrival="94.00" arrivalLane="b3[1]b_0" arrivalPos="238.77" arrivalSpeed="14.15" duration="80.00" routeLength="624.48" waitingTime="26.00" waitingCount="1" stopTime="0.00" timeLoss="36.61" rerouteNo="0" devices="tripinfo_Prati_Capraia_100_3" vType="passenger1" speedFactor="1.04" vaporized=""/>
    <tripinfo id="Prati_Capraia_100_8" depart="38.00" departLane="b3[0]_1" departPos="0.00" departSpeed="0.00" departDelay="0.00" arrival="96.00" arrivalLane="b3[1]b_1" arrivalPos="238.77" arrivalSpeed="15.11" duration="58.00" routeLength="624.48" waitingTime="6.00" waitingCount="1" stopTime="0.00" timeLoss="16.71" rerouteNo="0" devices="tripinfo_Prati_Capraia_100_8" vType="passenger1" speedFactor="1.10" vaporized=""/>
    <tripinfo id="Pertini_20_10" depart="21.00" departLane="b63[0]_2" departPos="0.00" departSpeed="0.00" departDelay="0.00" arrival="97.00" arrivalLane="b4[1][1][1]_0" arrivalPos="170.54" arrivalSpeed="12.40" duration="76.00" routeLength="895.82" waitingTime="0.00" waitingCount="0" stopTime="0.00" timeLoss="6.50" rerouteNo="0" devices="tripinfo_Pertini_20_10" vType="passenger3" speedFactor="0.93" vaporized=""/>
    <tripinfo id="Pertini_20_12" depart="25.00" departLane="b63[0]_2" departPos="0.00" departSpeed="0.00" departDelay="0.00" arrival="97.00" arrivalLane="b4[1][1][1]_1" arrivalPos="170.54" arrivalSpeed="13.31" duration="72.00" routeLength="895.82" waitingTime="0.00" waitingCount="0" stopTime="0.00" timeLoss="7.36" rerouteNo="0" devices="tripinfo_Pertini_20_12" vType="passenger5" speedFactor="1.00" vaporized=""/>
    <tripinfo id="Prati_Capraia_100_10" depart="48.00" departLane="b3[0]_1" departPos="0.00" departSpeed="0.00" departDelay="0.00" arrival="99.00" arrivalLane="b3[1]b_0" arrivalPos="238.77" arrivalSpeed="14.12" duration="51.00" routeLength="624.48" waitingTime="0.00" waitingCount="0" stopTime="0.00" timeLoss="8.22" rerouteNo="0" devices="tripinfo_Prati_Capraia_100_10" vType="passenger1" speedFactor="1.07" vaporized=""/>
    <tripinfo id="Pepoli_8_21" depart="36.00" departLane="a210_0" departPos="0.00" departSpeed="0.00" departDelay="0.00" arrival="100.00" arrivalLane="a134b_0" arrivalPos="156.17" arrivalSpeed="14.45" duration="64.00" routeLength="692.71" waitingTime="0.00" waitingCount="0" stopTime="0.00" timeLoss="16.21" rerouteNo="0" devices="tripinfo_Pepoli_8_21" vType="passenger1" speedFactor="1.07" vaporized=""/>
    <tripinfo id="Gandhi_80_11" depart="17.00" departLane="b1[0]_0" departPos="0.00" departSpeed="0.00" departDelay="0.00" arrival="101.00" arrivalLane="b21_0" arrivalPos="89.26" arrivalSpeed="12.64" duration="84.00" routeLength="512.45" waitingTime="35.00" waitingCount="1" stopTime="0.00" timeLoss="44.98" rerouteNo="0" devices="tripinfo_Gandhi_80_11" vType="passenger4" speedFactor="0.98" vaporized=""/>
    <tripinfo id="Pertini_20_14" depart="30.00" departLane="b63[0]_1" departPos="0.00" departSpeed="0.00" departDelay="0.00" arrival="101.00" arrivalLane="b4[1][1][1]_0" arrivalPos="170.54" arrivalSpeed="13.51" duration="71.00" routeLength="895.82" waitingTime="0.00" waitingCount="0" stopTime="0.00" timeLoss="6.32" rerouteNo="0" devices="tripinfo_Pertini_20_14" vType="passenger1" speedFactor="1.00" vaporized=""/>
    <tripinfo id="Prati_Capraia_100_9" depart="43.00" departLane="b3[0]_0" departPos="0.00" departSpeed="0.00" departDelay="0.00" arrival="102.00" arrivalLane="b3[1]b_1" arrivalPos="238.77" arrivalSpeed="13.33" duration="59.00" routeLength="624.48" waitingTime="3.00" waitingCount="1" stopTime="0.00" timeLoss="14.79" rerouteNo="0" devices="tripinfo_Prati_Capraia_100_9" vType="passenger3" speedFactor="1.04" vaporized=""/>
    <tripinfo id="Pertini_20_15" depart="32.00" departLane="b63[0]_2" departPos="0.00" departSpeed="0.00" departDelay="0.00" arrival="103.00" arrivalLane="b4[1][1][1]_1" arrivalPos="170.54" arrivalSpeed="12.56" duration="71.00" routeLength="882.71" waitingTime="0.00" waitingCount="0" stopTime="0.00" timeLoss="5.87" rerouteNo="0" devices="tripinfo_Pertini_20_15" vType="passenger5" speedFactor="0.98" vaporized=""/>
    <tripinfo id="Pertini_20_16" depart="34.00" departLane="b63[0]_1" departPos="0.00" departSpeed="0.00" departDelay="0.00" arrival="103.00" arrivalLane="b4[1][1][1]_0" arrivalPos="170.54" arrivalSpeed="14.09" duration="69.00" routeLength="895.82" waitingTime="0.00" waitingCount="0" stopTime="0.00" timeLoss="7.24" rerouteNo="0" devices="tripinfo_Pertini_20_16" vType="passenger1" speedFactor="1.05" vaporized=""/>
    <tripinfo id="Prati_Capraia_100_4" depart="19.00" departLane="b3[0]_1" departPos="0.00" departSpeed="0.00" departDelay="0.00" arrival="104.00" arrivalLane="b3[1]b_0" arrivalPos="238.77" arrivalSpeed="11.27" duration="85.00" routeLength="624.48" waitingTime="19.00" waitingCount="1" stopTime="0.00" timeLoss="30.88" rerouteNo="0" devices="tripinfo_Prati_Capraia_100_4" vType="passenger5" speedFactor="0.83" vaporized=""/>
    <tripinfo id="Prati_Capraia_100_5" depart="24.00" departLane="b3[0]_0" departPos="0.00" departSpeed="0.00" departDelay="0.00" arrival="104.00" arrivalLane="b3[1]b_1" arrivalPos="238.77" arrivalSpeed="11.98" duration="80.00" routeLength="624.48" waitingTime="18.00" waitingCount="1" stopTime="0.00" timeLoss="32.15" rerouteNo="0" devices="tripinfo_Prati_Capraia_100_5" vType="passenger1" speedFactor="0.94" vaporized=""/>
    <tripinfo id="Pertini_20_17" depart="36.00" departLane="b63[0]_2" departPos="0.00" departSpeed="0.00" departDelay="0.00" arrival="105.00" arrivalLane="b4[1][1][1]_1" arrivalPos="170.54" arrivalSpeed="14.24" duration="69.00" routeLength="882.71" waitingTime="0.00" waitingCount="0" stopTime="0.00" timeLoss="9.49" rerouteNo="0" devices="tripinfo_Pertini_20_17" vType="passenger5" speedFactor="1.08" vaporized=""/>
    <tripinfo id="Prati_Capraia_100_12" depart="58.00" departLane="b3[0]_1" departPos="0.00" departSpeed="0.00" departDelay="0.00" arrival="106.00" arrivalLane="b3[1]b_1" arrivalPos="238.77" arrivalSpeed="13.60" duration="48.00" routeLength="624.48" waitingTime="0.00" waitingCount="0" stopTime="0.00" timeLoss="5.66" rerouteNo="0" devices="tripinfo_Prati_Capraia_100_12" vType="passenger2a" speedFactor="1.07" vaporized=""/>
    <tripinfo id="Pertini_20_18" depart="38.00" departLane="b63[0]_1" departPos="0.00" departSpeed="0.00" departDelay="0.00" arrival="109.00" arrivalLane="b4[1][1][1]_0" arrivalPos="170.54" arrivalSpeed="13.73" duration="71.00" routeLength="895.82" waitingTime="0.00" waitingCount="0" stopTime="0.00" timeLoss="6.89" rerouteNo="0" devices="tripinfo_Pertini_20_18" vType="passenger3" speedFactor="1.02" vaporized=""/>
    <tripinfo id="Prati_Capraia_100_11" depart="53.00" departLane="b3[0]_0" departPos="0.00" departSpeed="0.00" departDelay="0.00" arrival="109.00" arrivalLane="b3[1]b_0" arrivalPos="238.77" arrivalSpeed="11.79" duration="56.00" routeLength="624.48" waitingTime="0.00" waitingCount="0" stopTime="0.00" timeLoss="5.02" rerouteNo="0" devices="tripinfo_Prati_Capraia_100_11" vType="passenger2b" speedFactor="0.90" vaporized=""/>
    <tripinfo id="Pertini_20_19" depart="40.00" departLane="b63[0]_2" departPos="0.00" departSpeed="0.00" departDelay="0.00" arrival="112.00" arrivalLane="b4[1][1][1]_0" arrivalPos="170.54" arrivalSpeed="12.39" duration="72.00" routeLength="895.82" waitingTime="0.00" waitingCount="0" stopTime="0.00" timeLoss="5.93" rerouteNo="0" devices="tripinfo_Pertini_20_19" vType="passenger4" speedFactor="0.98" vaporized=""/>
    <tripinfo id="Prati_Capraia_100_14" depart="68.00" departLane="b3[0]_1" departPos="0.00" departSpeed="0.00" departDelay="0.00" arrival="112.00" arrivalLane="b3[1]b_1" arrivalPos="238.77" arrivalSpeed="15.77" duration="44.00" routeLength="624.48" waitingTime="0.00" waitingCount="0" stopTime="0.00" timeLoss="4.41" rerouteNo="0" devices="tripinfo_Prati_Capraia_100_14" vType="passenger3" speedFactor="1.15" vaporized=""/>
    <tripinfo id="Gandhi_80_45" depart="70.00" departLane="b1[0]_0" departPos="0.00" departSpeed="0.00" departDelay="0.00" arrival="113.00" arrivalLane="b21_0" arrivalPos="89.26" arrivalSpeed="14.22" duration="43.00" routeLength="512.45" waitingTime="0.00" waitingCount="0" stopTime="0.00" timeLoss="8.04" rerouteNo="0" devices="tripinfo_Gandhi_80_45" vType="passenger1" speedFactor="1.10" vaporized=""/>
    <tripinfo id="Pertini_20_21" depart="45.00" departLane="b63[0]_1" departPos="0.00" departSpeed="0.00" departDelay="0.00" arrival="114.00" arrivalLane="b4[1][1][1]_0" arrivalPos="170.54" arrivalSpeed="14.57" duration="69.00" routeLength="895.82" waitingTime="0.00" waitingCount="0" stopTime="0.00" timeLoss="10.56" rerouteNo="0" devices="tripinfo_Pertini_20_21" vType="passenger1" speedFactor="1.11" vaporized=""/>
    <tripinfo id="Pertini_20_22" depart="47.00" departLane="b63[0]_2" departPos="0.00" departSpeed="0.00" departDelay="0.00" arrival="116.00" arrivalLane="b4[1][1][1]_0" arrivalPos="170.54" arrivalSpeed="16.01" duration="69.00" routeLength="882.71" waitingTime="0.00" waitingCount="0" stopTime="0.00" timeLoss="15.78" rerouteNo="0" devices="tripinfo_Pertini_20_22" vType="passenger2a" speedFactor="1.21" vaporized=""/>
    <tripinfo id="Prati_Capraia_100_13" depart="63.00" departLane="b3[0]_0" departPos="0.00" departSpeed="0.00" departDelay="0.00" arrival="121.00" arrivalLane="b3[1]b_0" arrivalPos="238.77" arrivalSpeed="11.06" duration="58.00" routeLength="624.48" waitingTime="0.00" waitingCount="0" stopTime="0.00" timeLoss="5.61" rerouteNo="0" devices="tripinfo_Prati_Capraia_100_13" vType="passenger2a" speedFactor="0.87" vaporized=""/>
    <tripinfo id="Costa_3_21" depart="54.00" departLane="a78[0]_0" departPos="0.00" departSpeed="0.00" departDelay="0.00" arrival="128.00" arrivalLane="a14_0" arrivalPos="77.26" arrivalSpeed="13.19" duration="74.00" routeLength="850.23" waitingTime="0.00" waitingCount="0" stopTime="0.00" timeLoss="13.41" rerouteNo="0" devices="tripinfo_Costa_3_21" vType="passenger4" speedFactor="1.02" vaporized=""/>
    <tripinfo id="Pertini_20_26" depart="55.00" departLane="b63[0]_2" departPos="0.00" departSpeed="0.00" departDelay="0.00" arrival="128.00" arrivalLane="b4[1][1][1]_0" arrivalPos="170.54" arrivalSpeed="12.83" duration="73.00" routeLength="882.71" waitingTime="0.00" waitingCount="0" stopTime="0.00" timeLoss="6.34" rerouteNo="0" devices="tripinfo_Pertini_20_26" vType="passenger4" speedFactor="0.97" vaporized=""/>
    <tripinfo id="Prati_Capraia_10_19" depart="92.00" departLane="b3[0]_0" departPos="0.00" departSpeed="0.00" departDelay="0.00" arrival="128.00" arrivalLane="b10_0" arrivalPos="223.30" arrivalSpeed="13.07" duration="36.00" routeLength="409.63" waitingTime="0.00" waitingCount="0" stopTime="0.00" timeLoss="5.53" rerouteNo="0" devices="tripinfo_Prati_Capraia_10_19" vType="passenger1" speedFactor="1.00" vaporized=""/>
    <tripinfo id="Pertini_10_20" depart="43.00" departLane="b63[0]_2" departPos="0.00" departSpeed="0.00" departDelay="0.00" arrival="130.00" arrivalLane="b10_0" arrivalPos="223.30" arrivalSpeed="14.37" duration="87.00" routeLength="935.05" waitingTime="10.00" waitingCount="1" stopTime="0.00" timeLoss="21.29" rerouteNo="0" devices="tripinfo_Pertini_10_20" vType="passenger1" speedFactor="1.04" vaporized=""/>
    <tripinfo id="Prati_Capraia_100_16" depart="77.00" departLane="b3[0]_0" departPos="0.00" departSpeed="0.00" departDelay="0.00" arrival="131.00" arrivalLane="b3[1]b_0" arrivalPos="238.77" arrivalSpeed="12.58" duration="54.00" routeLength="624.48" waitingTime="0.00" waitingCount="0" stopTime="0.00" timeLoss="4.99" rerouteNo="0" devices="tripinfo_Prati_Capraia_100_16" vType="passenger4" speedFactor="0.93" vaporized=""/>
    <tripinfo id="Pertini_20_27" depart="58.00" departLane="b63[0]_1" departPos="0.00" departSpeed="0.00" departDelay="0.00" arrival="132.00" arrivalLane="b4[1][1][1]_1" arrivalPos="170.54" arrivalSpeed="12.58" duration="74.00" routeLength="895.82" waitingTime="0.00" waitingCount="0" stopTime="0.00" timeLoss="6.77" rerouteNo="0" devices="tripinfo_Pertini_20_27" vType="passenger3" speedFactor="0.97" vaporized=""/>
    <tripinfo id="Pertini_20_30" depart="64.00" departLane="b63[0]_1" departPos="0.00" departSpeed="0.00" departDelay="0.00" arrival="133.00" arrivalLane="b4[1][1][1]_1" arrivalPos="170.54" arrivalSpeed="12.86" duration="69.00" routeLength="882.71" waitingTime="0.00" waitingCount="0" stopTime="0.00" timeLoss="5.41" rerouteNo="0" devices="tripinfo_Pertini_20_30" vType="passenger5" speedFactor="1.00" vaporized=""/>
    <tripinfo id="Pertini_20_25" depart="53.00" departLane="b63[0]_1" departPos="0.00" departSpeed="0.00" departDelay="0.00" arrival="134.00" arrivalLane="b4[1][1][1]_0" arrivalPos="170.54" arrivalSpeed="11.11" duration="81.00" routeLength="895.82" waitingTime="0.00" waitingCount="0" stopTime="0.00" timeLoss="6.71" rerouteNo="0" devices="tripinfo_Pertini_20_25" vType="passenger1" speedFactor="0.87" vaporized=""/>
    <tripinfo id="Prati_Capraia_100_17" depart="82.00" departLane="b3[0]_1" departPos="0.00" departSpeed="0.00" departDelay="0.00" arrival="137.00" arrivalLane="b3[1]b_0" arrivalPos="238.77" arrivalSpeed="12.99" duration="55.00" routeLength="624.48" waitingTime="0.00" waitingCount="0" stopTime="0.00" timeLoss="10.42" rerouteNo="0" devices="tripinfo_Prati_Capraia_100_17" vType="passenger1" speedFactor="1.03" vaporized=""/>
    <tripinfo id="Prati_Capraia_30_6" depart="29.00" departLane="b3[0]_1" departPos="0.00" departSpeed="0.00" departDelay="0.00" arrival="141.00" arrivalLane="b70_0" arrivalPos="59.87" arrivalSpeed="12.66" duration="112.00" routeLength="802.86" waitingTime="29.00" waitingCount="2" stopTime="0.00" timeLoss="53.03" rerouteNo="0" devices="tripinfo_Prati_Capraia_30_6" vType="ignoring2a" speedFactor="1.00" vaporized=""/>
