<?xml version="1.0" encoding="UTF-8"?>

<!-- generated on 2026-04-25T23:59:31.983755+01:00 by Eclipse SUMO sumo 1.26.0
<sumoConfiguration xmlns:xsi="http://www.w3.org/2001/XMLSchema-instance" xsi:noNamespaceSchemaLocation="http://sumo.dlr.de/xsd/sumoConfiguration.xsd">

    <input>
        <net-file value="scenarios/bologna_joined/joined_buslanes.net.xml"/>
        <route-files value="scenarios/bologna_joined/joined.rou.xml,scenarios/bologna_joined/joined_busses.rou.xml"/>
        <additional-files value="scenarios/bologna_joined/joined_bus_stops.add.xml,scenarios/bologna_joined/joined_detectors.add.xml,scenarios/bologna_joined/joined_vtypes.add.xml,scenarios/bologna_joined/joined_tls.add.xml"/>
    </input>

    <output>
        <tripinfo-output value="scenarios/bologna_joined/tripinfos.xml"/>
        <save-state.prefix value="scenarios/bologna_joined/state"/>
    </output>

    <processing>
        <collision.action value="warn"/>
        <collision.check-junctions value="true"/>
        <collision.mingap-factor value="0"/>
    </processing>

    <report>
        <aggregate-warnings value="5"/>
        <log value="sim_logs/sumo.log"/>
        <log.timestamps value="true"/>
        <no-step-log value="true"/>
    </report>

    <traci_server>
        <remote-port value="37233"/>
    </traci_server>

</sumoConfiguration>
-->

<tripinfos xmlns:xsi="http://www.w3.org/2001/XMLSchema-instance" xsi:noNamespaceSchemaLocation="http://sumo.dlr.de/xsd/tripinfo_file.xsd">
    <tripinfo id="ego" depart="0.00" departLane="b63[0]_2" departPos="5.10" departSpeed="0.00" departDelay="0.00" arrival="83.00" arrivalLane="b4[1][1][1]_0" arrivalPos="171.54" arrivalSpeed="14.72" duration="83.00" routeLength="878.61" waitingTime="0.00" waitingCount="0" stopTime="0.00" timeLoss="23.19" rerouteNo="0" devices="tripinfo_ego" vType="egoType" speedFactor="1.06" vaporized=""/>
</tripinfos>
