<?xml version="1.0" encoding="UTF-8"?>

<!-- generated on 2026-03-29T21:16:01.535906+01:00 by Eclipse SUMO GUI 1.26.0
<sumoConfiguration xmlns:xsi="http://www.w3.org/2001/XMLSchema-instance" xsi:noNamespaceSchemaLocation="http://sumo.dlr.de/xsd/sumoConfiguration.xsd">

    <input>
        <net-file value="scenarios/bologna_joined/joined_buslanes.net.xml"/>
        <route-files value="scenarios/bologna_joined/joined.rou.xml,scenarios/bologna_joined/joined_busses.rou.xml"/>
        <additional-files value="scenarios/bologna_joined/joined_bus_stops.add.xml,scenarios/bologna_joined/joined_detectors.add.xml,scenarios/bologna_joined/joined_vtypes.add.xml,scenarios/bologna_joined/joined_tls.add.xml"/>
    </input>

    <output>
        <tripinfo-output value="scenarios/bologna_joined/tripinfos.xml"/>
        <save-state.prefix value="scenarios/bologna_joined/state"/>
    </output>

    <report>
        <log value="scenarios/bologna_joined/sumo_log.txt"/>
        <no-step-log value="true"/>
    </report>

    <traci_server>
        <remote-port value="45037"/>
    </traci_server>

</sumoConfiguration>
-->

<tripinfos xmlns:xsi="http://www.w3.org/2001/XMLSchema-instance" xsi:noNamespaceSchemaLocation="http://sumo.dlr.de/xsd/tripinfo_file.xsd">
    <tripinfo id="Pertini_20_7" depart="15.00" departLane="b63[0]_2" departPos="0.00" departSpeed="0.00" departDelay="0.00" arrival="84.00" arrivalLane="b4[1][1][1]_0" arrivalPos="170.54" arrivalSpeed="14.21" duration="69.00" routeLength="895.82" waitingTime="0.00" waitingCount="0" stopTime="0.00" timeLoss="6.04" rerouteNo="0" devices="tripinfo_Pertini_20_7" vType="passenger1" speedFactor="1.04" vaporized=""/>
    <tripinfo id="Pertini_20_9" depart="19.00" departLane="b63[0]_1" departPos="0.00" departSpeed="0.00" departDelay="0.00" arrival="85.00" arrivalLane="b4[1][1][1]_1" arrivalPos="170.54" arrivalSpeed="14.14" duration="66.00" routeLength="895.82" waitingTime="0.00" waitingCount="0" stopTime="0.00" timeLoss="6.89" rerouteNo="0" devices="tripinfo_Pertini_20_9" vType="passenger2a" speedFactor="1.10" vaporized=""/>
    <tripinfo id="Prati_Capraia_10_7" depart="34.00" departLane="b3[0]_0" departPos="0.00" departSpeed="0.00" departDelay="0.00" arrival="85.00" arrivalLane="b10_0" arrivalPos="223.30" arrivalSpeed="14.18" duration="51.00" routeLength="409.63" waitingTime="10.00" waitingCount="1" stopTime="0.00" timeLoss="21.67" rerouteNo="0" devices="tripinfo_Prati_Capraia_10_7" vType="passenger1" speedFactor="1.06" vaporized=""/>
    <tripinfo id="Pertini_20_11" depart="23.00" departLane="b63[0]_1" departPos="0.00" departSpeed="0.00" departDelay="0.00" arrival="86.00" arrivalLane="b4[1][1][1]_1" arrivalPos="170.54" arrivalSpeed="15.85" duration="63.00" routeLength="895.82" waitingTime="0.00" waitingCount="0" stopTime="0.00" timeLoss="7.63" rerouteNo="0" devices="tripinfo_Pertini_20_11" vType="passenger2a" speedFactor="1.17" vaporized=""/>
    <tripinfo id="Pepoli_8_16" depart="27.00" departLane="a210_0" departPos="0.00" departSpeed="0.00" departDelay="0.00" arrival="91.00" arrivalLane="a134b_0" arrivalPos="156.17" arrivalSpeed="11.60" duration="64.00" routeLength="692.71" waitingTime="0.00" waitingCount="0" stopTime="0.00" timeLoss="7.63" rerouteNo="0" devices="tripinfo_Pepoli_8_16" vType="passenger2a" speedFactor="0.91" vaporized=""/>
    <tripinfo id="Prati_Capraia_100_3" depart="14.00" departLane="b3[0]_0" departPos="0.00" departSpeed="0.00" departDelay="0.00" arrival="94.00" arrivalLane="b3[1]b_0" arrivalPos="238.77" arrivalSpeed="13.35" duration="80.00" routeLength="624.48" waitingTime="26.00" waitingCount="1" stopTime="0.00" timeLoss="36.79" rerouteNo="0" devices="tripinfo_Prati_Capraia_100_3" vType="passenger1" speedFactor="1.04" vaporized=""/>
    <tripinfo id="Prati_Capraia_100_8" depart="38.00" departLane="b3[0]_1" departPos="0.00" departSpeed="0.00" departDelay="0.00" arrival="96.00" arrivalLane="b3[1]b_1" arrivalPos="238.77" arrivalSpeed="14.78" duration="58.00" routeLength="624.48" waitingTime="6.00" waitingCount="1" stopTime="0.00" timeLoss="16.84" rerouteNo="0" devices="tripinfo_Prati_Capraia_100_8" vType="passenger1" speedFactor="1.10" vaporized=""/>
    <tripinfo id="Pertini_20_10" depart="21.00" departLane="b63[0]_2" departPos="0.00" departSpeed="0.00" departDelay="0.00" arrival="97.00" arrivalLane="b4[1][1][1]_0" arrivalPos="170.54" arrivalSpeed="11.89" duration="76.00" routeLength="895.82" waitingTime="0.00" waitingCount="0" stopTime="0.00" timeLoss="6.61" rerouteNo="0" devices="tripinfo_Pertini_20_10" vType="passenger3" speedFactor="0.93" vaporized=""/>
    <tripinfo id="Pertini_20_12" depart="25.00" departLane="b63[0]_2" departPos="0.00" departSpeed="0.00" departDelay="0.00" arrival="98.00" arrivalLane="b4[1][1][1]_1" arrivalPos="170.54" arrivalSpeed="13.67" duration="73.00" routeLength="895.82" waitingTime="0.00" waitingCount="0" stopTime="0.00" timeLoss="7.43" rerouteNo="0" devices="tripinfo_Pertini_20_12" vType="passenger5" speedFactor="1.00" vaporized=""/>
    <tripinfo id="Prati_Capraia_100_10" depart="48.00" departLane="b3[0]_1" departPos="0.00" departSpeed="0.00" departDelay="0.00" arrival="99.00" arrivalLane="b3[1]b_0" arrivalPos="238.77" arrivalSpeed="13.67" duration="51.00" routeLength="624.48" waitingTime="0.00" waitingCount="0" stopTime="0.00" timeLoss="8.29" rerouteNo="0" devices="tripinfo_Prati_Capraia_100_10" vType="passenger1" speedFactor="1.07" vaporized=""/>
    <tripinfo id="Pepoli_8_21" depart="36.00" departLane="a210_0" departPos="0.00" departSpeed="0.00" departDelay="0.00" arrival="100.00" arrivalLane="a134b_0" arrivalPos="156.17" arrivalSpeed="14.45" duration="64.00" routeLength="692.71" waitingTime="0.00" waitingCount="0" stopTime="0.00" timeLoss="16.20" rerouteNo="0" devices="tripinfo_Pepoli_8_21" vType="passenger1" speedFactor="1.07" vaporized=""/>
    <tripinfo id="Gandhi_80_11" depart="17.00" departLane="b1[0]_0" departPos="0.00" departSpeed="0.00" departDelay="0.00" arrival="101.00" arrivalLane="b21_0" arrivalPos="89.26" arrivalSpeed="12.72" duration="84.00" routeLength="512.45" waitingTime="35.00" waitingCount="1" stopTime="0.00" timeLoss="44.76" rerouteNo="0" devices="tripinfo_Gandhi_80_11" vType="passenger4" speedFactor="0.98" vaporized=""/>
    <tripinfo id="Pertini_20_14" depart="30.00" departLane="b63[0]_1" departPos="0.00" departSpeed="0.00" departDelay="0.00" arrival="102.00" arrivalLane="b4[1][1][1]_0" arrivalPos="170.54" arrivalSpeed="12.89" duration="72.00" routeLength="895.82" waitingTime="0.00" waitingCount="0" stopTime="0.00" timeLoss="6.52" rerouteNo="0" devices="tripinfo_Pertini_20_14" vType="passenger1" speedFactor="1.00" vaporized=""/>
    <tripinfo id="Prati_Capraia_100_9" depart="43.00" departLane="b3[0]_0" departPos="0.00" departSpeed="0.00" departDelay="0.00" arrival="102.00" arrivalLane="b3[1]b_1" arrivalPos="238.77" arrivalSpeed="13.55" duration="59.00" routeLength="624.48" waitingTime="3.00" waitingCount="1" stopTime="0.00" timeLoss="15.35" rerouteNo="0" devices="tripinfo_Prati_Capraia_100_9" vType="passenger3" speedFactor="1.04" vaporized=""/>
    <tripinfo id="Pertini_20_15" depart="32.00" departLane="b63[0]_2" departPos="0.00" departSpeed="0.00" departDelay="0.00" arrival="103.00" arrivalLane="b4[1][1][1]_1" arrivalPos="170.54" arrivalSpeed="12.56" duration="71.00" routeLength="882.71" waitingTime="0.00" waitingCount="0" stopTime="0.00" timeLoss="5.89" rerouteNo="0" devices="tripinfo_Pertini_20_15" vType="passenger5" speedFactor="0.98" vaporized=""/>
    <tripinfo id="Pertini_20_16" depart="34.00" departLane="b63[0]_1" departPos="0.00" departSpeed="0.00" departDelay="0.00" arrival="103.00" arrivalLane="b4[1][1][1]_0" arrivalPos="170.54" arrivalSpeed="13.69" duration="69.00" routeLength="895.82" waitingTime="0.00" waitingCount="0" stopTime="0.00" timeLoss="7.44" rerouteNo="0" devices="tripinfo_Pertini_20_16" vType="passenger1" speedFactor="1.05" vaporized=""/>
    <tripinfo id="Prati_Capraia_100_4" depart="19.00" departLane="b3[0]_1" departPos="0.00" departSpeed="0.00" departDelay="0.00" arrival="104.00" arrivalLane="b3[1]b_0" arrivalPos="238.77" arrivalSpeed="11.42" duration="85.00" routeLength="624.48" waitingTime="19.00" waitingCount="1" stopTime="0.00" timeLoss="30.77" rerouteNo="0" devices="tripinfo_Prati_Capraia_100_4" vType="passenger5" speedFactor="0.83" vaporized=""/>
    <tripinfo id="Prati_Capraia_100_5" depart="24.00" departLane="b3[0]_0" departPos="0.00" departSpeed="0.00" departDelay="0.00" arrival="105.00" arrivalLane="b3[1]b_1" arrivalPos="238.77" arrivalSpeed="11.98" duration="81.00" routeLength="624.48" waitingTime="18.00" waitingCount="1" stopTime="0.00" timeLoss="32.51" rerouteNo="0" devices="tripinfo_Prati_Capraia_100_5" vType="passenger1" speedFactor="0.94" vaporized=""/>
    <tripinfo id="Pertini_20_17" depart="36.00" departLane="b63[0]_2" departPos="0.00" departSpeed="0.00" departDelay="0.00" arrival="105.00" arrivalLane="b4[1][1][1]_1" arrivalPos="170.54" arrivalSpeed="14.24" duration="69.00" routeLength="882.71" waitingTime="0.00" waitingCount="0" stopTime="0.00" timeLoss="9.49" rerouteNo="0" devices="tripinfo_Pertini_20_17" vType="passenger5" speedFactor="1.08" vaporized=""/>
    <tripinfo id="Prati_Capraia_100_12" depart="58.00" departLane="b3[0]_1" departPos="0.00" departSpeed="0.00" departDelay="0.00" arrival="106.00" arrivalLane="b3[1]b_1" arrivalPos="238.77" arrivalSpeed="14.25" duration="48.00" routeLength="624.48" waitingTime="0.00" waitingCount="0" stopTime="0.00" timeLoss="5.81" rerouteNo="0" devices="tripinfo_Prati_Capraia_100_12" vType="passenger2a" speedFactor="1.07" vaporized=""/>
    <tripinfo id="Pertini_20_18" depart="38.00" departLane="b63[0]_1" departPos="0.00" departSpeed="0.00" departDelay="0.00" arrival="108.00" arrivalLane="b4[1][1][1]_0" arrivalPos="170.54" arrivalSpeed="13.83" duration="70.00" routeLength="895.82" waitingTime="0.00" waitingCount="0" stopTime="0.00" timeLoss="6.64" rerouteNo="0" devices="tripinfo_Pertini_20_18" vType="passenger3" speedFactor="1.02" vaporized=""/>
    <tripinfo id="Prati_Capraia_100_11" depart="53.00" departLane="b3[0]_0" departPos="0.00" departSpeed="0.00" departDelay="0.00" arrival="109.00" arrivalLane="b3[1]b_0" arrivalPos="238.77" arrivalSpeed="12.35" duration="56.00" routeLength="624.48" waitingTime="0.00" waitingCount="0" stopTime="0.00" timeLoss="4.97" rerouteNo="0" devices="tripinfo_Prati_Capraia_100_11" vType="passenger2b" speedFactor="0.90" vaporized=""/>
    <tripinfo id="Prati_Capraia_100_14" depart="68.00" departLane="b3[0]_1" departPos="0.00" departSpeed="0.00" departDelay="0.00" arrival="112.00" arrivalLane="b3[1]b_1" arrivalPos="238.77" arrivalSpeed="15.61" duration="44.00" routeLength="624.48" waitingTime="0.00" waitingCount="0" stopTime="0.00" timeLoss="4.36" rerouteNo="0" devices="tripinfo_Prati_Capraia_100_14" vType="passenger3" speedFactor="1.15" vaporized=""/>
    <tripinfo id="Pertini_20_19" depart="40.00" departLane="b63[0]_2" departPos="0.00" departSpeed="0.00" departDelay="0.00" arrival="113.00" arrivalLane="b4[1][1][1]_0" arrivalPos="170.54" arrivalSpeed="13.51" duration="73.00" routeLength="895.82" waitingTime="0.00" waitingCount="0" stopTime="0.00" timeLoss="6.16" rerouteNo="0" devices="tripinfo_Pertini_20_19" vType="passenger4" speedFactor="0.98" vaporized=""/>
    <tripinfo id="Gandhi_80_45" depart="70.00" departLane="b1[0]_0" departPos="0.00" departSpeed="0.00" departDelay="0.00" arrival="113.00" arrivalLane="b21_0" arrivalPos="89.26" arrivalSpeed="14.22" duration="43.00" routeLength="512.45" waitingTime="0.00" waitingCount="0" stopTime="0.00" timeLoss="8.04" rerouteNo="0" devices="tripinfo_Gandhi_80_45" vType="passenger1" speedFactor="1.10" vaporized=""/>
    <tripinfo id="Pertini_20_21" depart="45.00" departLane="b63[0]_1" departPos="0.00" departSpeed="0.00" departDelay="0.00" arrival="114.00" arrivalLane="b4[1][1][1]_0" arrivalPos="170.54" arrivalSpeed="14.65" duration="69.00" routeLength="895.82" waitingTime="0.00" waitingCount="0" stopTime="0.00" timeLoss="10.87" rerouteNo="0" devices="tripinfo_Pertini_20_21" vType="passenger1" speedFactor="1.11" vaporized=""/>
    <tripinfo id="Pertini_20_22" depart="47.00" departLane="b63[0]_2" departPos="0.00" departSpeed="0.00" departDelay="0.00" arrival="116.00" arrivalLane="b4[1][1][1]_0" arrivalPos="170.54" arrivalSpeed="16.01" duration="69.00" routeLength="882.71" waitingTime="1.00" waitingCount="1" stopTime="0.00" timeLoss="16.33" rerouteNo="0" devices="tripinfo_Pertini_20_22" vType="passenger2a" speedFactor="1.21" vaporized=""/>
    <tripinfo id="Prati_Capraia_100_13" depart="63.00" departLane="b3[0]_0" departPos="0.00" departSpeed="0.00" departDelay="0.00" arrival="120.00" arrivalLane="b3[1]b_0" arrivalPos="238.77" arrivalSpeed="11.44" duration="57.00" routeLength="624.48" waitingTime="0.00" waitingCount="0" stopTime="0.00" timeLoss="5.32" rerouteNo="0" devices="tripinfo_Prati_Capraia_100_13" vType="passenger2a" speedFactor="0.87" vaporized=""/>
    <tripinfo id="Pertini_20_26" depart="55.00" departLane="b63[0]_2" departPos="0.00" departSpeed="0.00" departDelay="0.00" arrival="127.00" arrivalLane="b4[1][1][1]_0" arrivalPos="170.54" arrivalSpeed="12.31" duration="72.00" routeLength="882.71" waitingTime="0.00" waitingCount="0" stopTime="0.00" timeLoss="6.19" rerouteNo="0" devices="tripinfo_Pertini_20_26" vType="passenger4" speedFactor="0.97" vaporized=""/>
    <tripinfo id="Prati_Capraia_10_19" depart="92.00" departLane="b3[0]_0" departPos="0.00" departSpeed="0.00" departDelay="0.00" arrival="128.00" arrivalLane="b10_0" arrivalPos="223.30" arrivalSpeed="13.09" duration="36.00" routeLength="409.63" waitingTime="0.00" waitingCount="0" stopTime="0.00" timeLoss="5.85" rerouteNo="0" devices="tripinfo_Prati_Capraia_10_19" vType="passenger1" speedFactor="1.00" vaporized=""/>
    <tripinfo id="Costa_3_21" depart="54.00" departLane="a78[0]_0" departPos="0.00" departSpeed="0.00" departDelay="0.00" arrival="129.00" arrivalLane="a14_0" arrivalPos="77.26" arrivalSpeed="13.83" duration="75.00" routeLength="850.23" waitingTime="0.00" waitingCount="0" stopTime="0.00" timeLoss="13.67" rerouteNo="0" devices="tripinfo_Costa_3_21" vType="passenger4" speedFactor="1.02" vaporized=""/>
    <tripinfo id="Pertini_10_20" depart="43.00" departLane="b63[0]_2" departPos="0.00" departSpeed="0.00" departDelay="0.00" arrival="130.00" arrivalLane="b10_0" arrivalPos="223.30" arrivalSpeed="14.23" duration="87.00" routeLength="935.05" waitingTime="11.00" waitingCount="1" stopTime="0.00" timeLoss="21.29" rerouteNo="0" devices="tripinfo_Pertini_10_20" vType="passenger1" speedFactor="1.04" vaporized=""/>
    <tripinfo id="Pertini_20_27" depart="58.00" departLane="b63[0]_1" departPos="0.00" departSpeed="0.00" departDelay="0.00" arrival="131.00" arrivalLane="b4[1][1][1]_1" arrivalPos="170.54" arrivalSpeed="12.79" duration="73.00" routeLength="895.82" waitingTime="0.00" waitingCount="0" stopTime="0.00" timeLoss="6.59" rerouteNo="0" devices="tripinfo_Pertini_20_27" vType="passenger3" speedFactor="0.97" vaporized=""/>
    <tripinfo id="Prati_Capraia_100_16" depart="77.00" departLane="b3[0]_0" departPos="0.00" departSpeed="0.00" departDelay="0.00" arrival="131.00" arrivalLane="b3[1]b_0" arrivalPos="238.77" arrivalSpeed="12.73" duration="54.00" routeLength="624.48" waitingTime="0.00" waitingCount="0" stopTime="0.00" timeLoss="5.23" rerouteNo="0" devices="tripinfo_Prati_Capraia_100_16" vType="passenger4" speedFactor="0.93" vaporized=""/>
    <tripinfo id="Pertini_20_25" depart="53.00" departLane="b63[0]_1" departPos="0.00" departSpeed="0.00" departDelay="0.00" arrival="134.00" arrivalLane="b4[1][1][1]_0" arrivalPos="170.54" arrivalSpeed="11.74" duration="81.00" routeLength="895.82" waitingTime="0.00" waitingCount="0" stopTime="0.00" timeLoss="6.22" rerouteNo="0" devices="tripinfo_Pertini_20_25" vType="passenger1" speedFactor="0.87" vaporized=""/>
    <tripinfo id="Prati_Capraia_100_17" depart="82.00" departLane="b3[0]_1" departPos="0.00" departSpeed="0.00" departDelay="0.00" arrival="136.00" arrivalLane="b3[1]b_0" arrivalPos="238.77" arrivalSpeed="13.09" duration="54.00" routeLength="624.48" waitingTime="0.00" waitingCount="0" stopTime="0.00" timeLoss="10.07" rerouteNo="0" devices="tripinfo_Prati_Capraia_100_17" vType="passenger1" speedFactor="1.03" vaporized=""/>
    <tripinfo id="Prati_Capraia_30_6" depart="29.00" departLane="b3[0]_1" departPos="0.00" departSpeed="0.00" departDelay="0.00" arrival="139.00" arrivalLane="b70_0" arrivalPos="59.87" arrivalSpeed="13.26" duration="110.00" routeLength="802.86" waitingTime="31.00" waitingCount="2" stopTime="0.00" timeLoss="50.83" rerouteNo="0" devices="tripinfo_Prati_Capraia_30_6" vType="ignoring2a" speedFactor="1.00" vaporized=""/>
    <tripinfo id="Prati_Capraia_100_18" depart="87.00" departLane="b3[0]_0" departPos="0.00" departSpeed="0.00" departDelay="0.00" arrival="147.00" arrivalLane="b3[1]b_0" arrivalPos="238.77" arrivalSpeed="11.31" duration="60.00" routeLength="624.48" waitingTime="0.00" waitingCount="0" stopTime="0.00" timeLoss="5.12" rerouteNo="0" devices="tripinfo_Prati_Capraia_100_18" vType="passenger2a" speedFactor="0.83" vaporized=""/>
    <tripinfo id="Borgo_20_3" depart="18.00" departLane="b6_1" departPos="0.00" departSpeed="0.00" departDelay="0.00" arrival="148.00" arrivalLane="b4[1][1][1]_1" arrivalPos="170.54" arrivalSpeed="11.34" duration="130.00" routeLength="551.60" waitingTime="72.00" waitingCount="1" stopTime="0.00" timeLoss="82.98" rerouteNo="0" devices="tripinfo_Borgo_20_3" vType="passenger2b" speedFactor="0.87" vaporized=""/>
    <tripinfo id="Borgo_20_4" depart="24.00" departLane="b6_1" departPos="0.00" departSpeed="0.00" departDelay="0.00" arrival="149.00" arrivalLane="b4[1][1][1]_1" arrivalPos="170.54" arrivalSpeed="12.82" duration="125.00" routeLength="551.60" waitingTime="69.00" waitingCount="1" stopTime="0.00" timeLoss="84.65" rerouteNo="0" devices="tripinfo_Borgo_20_4" vType="passenger4" speedFactor="1.00" vaporized=""/>
    <tripinfo id="Pepoli_8_23" depart="39.00" departLane="a210_0" departPos="0.00" departSpeed="0.00" departDelay="0.00" arrival="149.00" arrivalLane="a134b_0" arrivalPos="156.17" arrivalSpeed="15.80" duration="110.00" routeLength="692.71" waitingTime="46.00" waitingCount="2" stopTime="0.00" timeLoss="67.13" rerouteNo="0" devices="tripinfo_Pepoli_8_23" vType="passenger4" speedFactor="1.18" vaporized=""/>
    <tripinfo id="Turati_3_2" depart="69.00" departLane="a195_0" departPos="0.00" departSpeed="0.00" departDelay="0.00" arrival="149.00" arrivalLane="a14_0" arrivalPos="77.26" arrivalSpeed="13.32" duration="80.00" routeLength="947.57" waitingTime="0.00" waitingCount="0" stopTime="0.00" timeLoss="10.66" rerouteNo="0" devices="tripinfo_Turati_3_2" vType="ignoring1" speedFactor="1.00" vaporized=""/>
    <tripinfo id="Pepoli_10_19" depart="32.00" departLane="a210_1" departPos="0.00" departSpeed="0.00" departDelay="0.00" arrival="151.00" arrivalLane="a204[1][1]_2" arrivalPos="435.51" arrivalSpeed="13.20" duration="119.00" routeLength="1470.65" waitingTime="1.00" waitingCount="1" stopTime="0.00" timeLoss="17.28" rerouteNo="0" devices="tripinfo_Pepoli_10_19" vType="passenger3" speedFactor="1.04" vaporized=""/>
    <tripinfo id="Borgo_20_6" depart="36.00" departLane="b6_1" departPos="0.00" departSpeed="0.00" departDelay="0.00" arrival="151.00" arrivalLane="b4[1][1][1]_1" arrivalPos="170.54" arrivalSpeed="15.63" duration="115.00" routeLength="551.60" waitingTime="63.00" waitingCount="1" stopTime="0.00" timeLoss="79.05" rerouteNo="0" devices="tripinfo_Borgo_20_6" vType="passenger3" speedFactor="1.14" vaporized=""/>
    <tripinfo id="Pepoli_10_27" depart="46.00" departLane="a210_1" departPos="0.00" departSpeed="0.00" departDelay="0.00" arrival="151.00" arrivalLane="a204[1][1]_1" arrivalPos="435.51" arrivalSpeed="15.11" duration="105.00" routeLength="1470.65" waitingTime="0.00" waitingCount="0" stopTime="0.00" timeLoss="11.01" rerouteNo="0" devices="tripinfo_Pepoli_10_27" vType="passenger3" speedFactor="1.13" vaporized=""/>
    <tripinfo id="Pepoli_10_22" depart="37.00" departLane="a210_1" departPos="0.00" departSpeed="0.00" departDelay="0.00" arrival="154.00" arrivalLane="a204[1][1]_1" arrivalPos="435.51" arrivalSpeed="14.47" duration="117.00" routeLength="1470.65" waitingTime="0.00" waitingCount="0" stopTime="0.00" timeLoss="16.86" rerouteNo="0" devices="tripinfo_Pepoli_10_22" vType="passenger2a" speedFactor="1.06" vaporized=""/>
    <tripinfo id="Pepoli_8_25" depart="43.00" departLane="a210_0" departPos="0.00" departSpeed="0.00" departDelay="1.00" arrival="154.00" arrivalLane="a134b_0" arrivalPos="156.17" arrivalSpeed="13.19" duration="111.00" routeLength="692.71" waitingTime="44.00" waitingCount="1" stopTime="0.00" timeLoss="61.08" rerouteNo="0" devices="tripinfo_Pepoli_8_25" vType="passenger2a" speedFactor="1.03" vaporized=""/>
    <tripinfo id="Borgo_20_7" depart="42.00" departLane="b6_1" departPos="0.00" departSpeed="0.00" departDelay="0.00" arrival="155.00" arrivalLane="b4[1][1][1]_1" arrivalPos="170.54" arrivalSpeed="10.98" duration="113.00" routeLength="551.60" waitingTime="56.00" waitingCount="1" stopTime="0.00" timeLoss="67.08" rerouteNo="0" devices="tripinfo_Borgo_20_7" vType="passenger2b" speedFactor="0.89" vaporized=""/>
    <tripinfo id="Pepoli_10_11" depart="19.00" departLane="a210_0" departPos="0.00" departSpeed="0.00" departDelay="1.00" arrival="156.00" arrivalLane="a204[1][1]_0" arrivalPos="435.51" arrivalSpeed="11.78" duration="137.00" routeLength="1470.65" waitingTime="3.00" waitingCount="1" stopTime="0.00" timeLoss="16.81" rerouteNo="0" devices="tripinfo_Pepoli_10_11" vType="passenger2b" speedFactor="0.89" vaporized=""/>
    <tripinfo id="Pepoli_8_28" depart="48.00" departLane="a210_0" departPos="0.00" departSpeed="0.00" departDelay="0.00" arrival="157.00" arrivalLane="a134b_0" arrivalPos="156.17" arrivalSpeed="12.56" duration="109.00" routeLength="692.71" waitingTime="42.00" waitingCount="1" stopTime="0.00" timeLoss="54.60" rerouteNo="0" devices="tripinfo_Pepoli_8_28" vType="passenger1" speedFactor="0.94" vaporized=""/>
    <tripinfo id="Borgo_20_9" depart="54.00" departLane="b6_1" departPos="0.00" departSpeed="0.00" departDelay="0.00" arrival="158.00" arrivalLane="b4[1][1][1]_1" arrivalPos="170.54" arrivalSpeed="12.62" duration="104.00" routeLength="551.60" waitingTime="48.00" waitingCount="1" stopTime="0.00" timeLoss="61.67" rerouteNo="0" devices="tripinfo_Borgo_20_9" vType="passenger2b" speedFactor="0.96" vaporized=""/>
    <tripinfo id="Pertini_102_24" depart="56.00" departLane="b13[0]_0" departPos="0.00" departSpeed="0.00" departDelay="5.00" arrival="160.00" arrivalLane="b29[0]_0" arrivalPos="129.99" arrivalSpeed="14.59" duration="104.00" routeLength="818.26" waitingTime="23.00" waitingCount="2" stopTime="0.00" timeLoss="48.76" rerouteNo="0" devices="tripinfo_Pertini_102_24" vType="passenger1" speedFactor="1.13" vaporized=""/>
    <tripinfo id="Borgo_100_2" depart="12.00" departLane="b6_0" departPos="0.00" departSpeed="0.00" departDelay="0.00" arrival="161.00" arrivalLane="b3[1]b_0" arrivalPos="238.77" arrivalSpeed="13.69" duration="149.00" routeLength="797.07" waitingTime="79.00" waitingCount="1" stopTime="0.00" timeLoss="91.19" rerouteNo="0" devices="tripinfo_Borgo_100_2" vType="passenger1" speedFactor="1.02" vaporized=""/>
    <tripinfo id="Pepoli_10_10" depart="17.00" departLane="a210_0" departPos="0.00" departSpeed="0.00" departDelay="0.00" arrival="161.00" arrivalLane="a204[1][1]_0" arrivalPos="435.51" arrivalSpeed="13.00" duration="144.00" routeLength="1470.65" waitingTime="8.00" waitingCount="1" stopTime="0.00" timeLoss="31.81" rerouteNo="0" devices="tripinfo_Pepoli_10_10" vType="passenger2b" speedFactor="0.95" vaporized=""/>
    <tripinfo id="Nigrisoli_50_6" depart="37.00" departLane="b65_0" departPos="0.00" departSpeed="0.00" departDelay="0.00" arrival="161.00" arrivalLane="b35[1][1][1][1]_0" arrivalPos="389.48" arrivalSpeed="13.45" duration="124.00" routeLength="1292.85" waitingTime="15.00" waitingCount="1" stopTime="0.00" timeLoss="30.28" rerouteNo="0" devices="tripinfo_Nigrisoli_50_6" vType="ignoring1" speedFactor="1.00" vaporized=""/>
    <tripinfo id="Pepoli_10_18" depart="30.00" departLane="a210_0" departPos="0.00" departSpeed="0.00" departDelay="0.00" arrival="163.00" arrivalLane="a204[1][1]_1" arrivalPos="435.51" arrivalSpeed="14.82" duration="133.00" routeLength="1470.65" waitingTime="8.00" waitingCount="2" stopTime="0.00" timeLoss="37.62" rerouteNo="0" devices="tripinfo_Pepoli_10_18" vType="passenger2b" speedFactor="1.12" vaporized=""/>
    <tripinfo id="Pepoli_8_44" depart="75.00" departLane="a210_0" departPos="0.00" departSpeed="0.00" departDelay="0.00" arrival="163.00" arrivalLane="a134b_0" arrivalPos="156.17" arrivalSpeed="15.61" duration="88.00" routeLength="692.71" waitingTime="24.00" waitingCount="1" stopTime="0.00" timeLoss="42.90" rerouteNo="0" devices="tripinfo_Pepoli_8_44" vType="passenger2a" speedFactor="1.13" vaporized=""/>
    <tripinfo id="Borgo_20_13" depart="79.00" departLane="b6_1" departPos="0.00" departSpeed="0.00" departDelay="0.00" arrival="164.00" arrivalLane="b4[1][1][1]_1" arrivalPos="170.54" arrivalSpeed="10.76" duration="85.00" routeLength="551.60" waitingTime="24.00" waitingCount="1" stopTime="0.00" timeLoss="37.31" rerouteNo="0" devices="tripinfo_Borgo_20_13" vType="passenger1" speedFactor="0.85" vaporized=""/>
    <tripinfo id="XXI_Aprile_2_12" depart="42.00" departLane="a13_0" departPos="0.00" departSpeed="0.00" departDelay="0.00" arrival="165.00" arrivalLane="a77[1][1]_0" arrivalPos="463.98" arrivalSpeed="15.46" duration="123.00" routeLength="976.81" waitingTime="36.00" waitingCount="2" stopTime="0.00" timeLoss="58.67" rerouteNo="0" devices="tripinfo_XXI_Aprile_2_12" vType="passenger1" speedFactor="1.12" vaporized=""/>
    <tripinfo id="Borgo_100_8" depart="48.00" departLane="b6_0" departPos="0.00" departSpeed="0.00" departDelay="0.00" arrival="165.00" arrivalLane="b3[1]b_0" arrivalPos="238.77" arrivalSpeed="12.77" duration="117.00" routeLength="797.07" waitingTime="44.00" waitingCount="1" stopTime="0.00" timeLoss="56.48" rerouteNo="0" devices="tripinfo_Borgo_100_8" vType="passenger2b" speedFactor="0.97" vaporized=""/>
    <tripinfo id="Borgo_100_11" depart="66.00" departLane="b6_0" departPos="0.00" departSpeed="0.00" departDelay="0.00" arrival="165.00" arrivalLane="b3[1]b_1" arrivalPos="238.77" arrivalSpeed="13.78" duration="99.00" routeLength="797.07" waitingTime="28.00" waitingCount="1" stopTime="0.00" timeLoss="41.39" rerouteNo="0" devices="tripinfo_Borgo_100_11" vType="passenger1" speedFactor="1.01" vaporized=""/>
    <tripinfo id="Costa_1_4" depart="10.00" departLane="a78[0]_0" departPos="0.00" departSpeed="0.00" departDelay="0.00" arrival="166.00" arrivalLane="b2[1][1][1]b_0" arrivalPos="324.74" arrivalSpeed="14.04" duration="156.00" routeLength="1761.18" waitingTime="20.00" waitingCount="1" stopTime="0.00" timeLoss="37.00" rerouteNo="0" devices="tripinfo_Costa_1_4" vType="passenger1" speedFactor="1.08" vaporized=""/>
    <tripinfo id="Borgo_100_12" depart="72.00" departLane="b6_0" departPos="0.00" departSpeed="0.00" departDelay="0.00" arrival="167.00" arrivalLane="b3[1]b_0" arrivalPos="238.77" arrivalSpeed="14.42" duration="95.00" routeLength="797.07" waitingTime="25.00" waitingCount="1" stopTime="0.00" timeLoss="39.80" rerouteNo="0" devices="tripinfo_Borgo_100_12" vType="passenger2b" speedFactor="1.07" vaporized=""/>
    <tripinfo id="Pepoli_8_48" depart="82.00" departLane="a210_0" departPos="0.00" departSpeed="0.00" departDelay="0.00" arrival="168.00" arrivalLane="a134b_0" arrivalPos="156.17" arrivalSpeed="12.99" duration="86.00" routeLength="692.71" waitingTime="17.00" waitingCount="1" stopTime="0.00" timeLoss="33.55" rerouteNo="0" devices="tripinfo_Pepoli_8_48" vType="passenger2a" speedFactor="0.98" vaporized=""/>
    <tripinfo id="Borgo_20_16" depart="97.00" departLane="b6_1" departPos="0.00" departSpeed="0.00" departDelay="0.00" arrival="168.00" arrivalLane="b4[1][1][1]_1" arrivalPos="170.54" arrivalSpeed="10.89" duration="71.00" routeLength="551.60" waitingTime="7.00" waitingCount="1" stopTime="0.00" timeLoss="21.74" rerouteNo="0" devices="tripinfo_Borgo_20_16" vType="passenger2b" speedFactor="0.82" vaporized=""/>
    <tripinfo id="Pepoli_10_20" depart="34.00" departLane="a210_0" departPos="0.00" departSpeed="0.00" departDelay="0.00" arrival="171.00" arrivalLane="a204[1][1]_0" arrivalPos="435.51" arrivalSpeed="11.10" duration="137.00" routeLength="1470.65" waitingTime="0.00" waitingCount="0" stopTime="0.00" timeLoss="9.61" rerouteNo="0" devices="tripinfo_Pepoli_10_20" vType="passenger1" speedFactor="0.83" vaporized=""/>
    <tripinfo id="Borgo_100_15" depart="91.00" departLane="b6_0" departPos="0.00" departSpeed="0.00" departDelay="0.00" arrival="171.00" arrivalLane="b3[1]b_0" arrivalPos="238.77" arrivalSpeed="12.17" duration="80.00" routeLength="797.07" waitingTime="5.00" waitingCount="1" stopTime="0.00" timeLoss="19.73" rerouteNo="0" devices="tripinfo_Borgo_100_15" vType="passenger3" speedFactor="0.97" vaporized=""/>
    <tripinfo id="Malvasia_10_6" depart="29.00" departLane="b52_0" departPos="0.00" departSpeed="0.00" departDelay="0.00" arrival="173.00" arrivalLane="b10_0" arrivalPos="223.30" arrivalSpeed="14.85" duration="144.00" routeLength="1665.44" waitingTime="9.00" waitingCount="1" stopTime="0.00" timeLoss="35.64" rerouteNo="0" devices="tripinfo_Malvasia_10_6" vType="passenger1" speedFactor="1.12" vaporized=""/>
    <tripinfo id="Pepoli_8_51" depart="87.00" departLane="a210_0" departPos="0.00" departSpeed="0.00" departDelay="0.00" arrival="173.00" arrivalLane="a134b_0" arrivalPos="156.17" arrivalSpeed="12.62" duration="86.00" routeLength="692.71" waitingTime="15.00" waitingCount="1" stopTime="0.00" timeLoss="33.38" rerouteNo="0" devices="tripinfo_Pepoli_8_51" vType="passenger3" speedFactor="0.98" vaporized=""/>