<?xml version="1.0" encoding="UTF-8"?>

<!-- generated on 2026-04-28T17:23:06.416628+01:00 by Eclipse SUMO GUI 1.26.0
<sumoConfiguration xmlns:xsi="http://www.w3.org/2001/XMLSchema-instance" xsi:noNamespaceSchemaLocation="http://sumo.dlr.de/xsd/sumoConfiguration.xsd">

    <input>
        <net-file value="scenarios/bologna_joined/joined_buslanes.net.xml"/>
        <route-files value="scenarios/bologna_joined/joined.rou.xml,scenarios/bologna_joined/joined_busses.rou.xml"/>
        <additional-files value="scenarios/bologna_joined/joined_bus_stops.add.xml,scenarios/bologna_joined/joined_detectors.add.xml,scenarios/bologna_joined/joined_vtypes.add.xml,scenarios/bologna_joined/joined_tls.add.xml"/>
    </input>

    <output>
        <tripinfo-output value="scenarios/bologna_joined/tripinfos.xml"/>
        <save-state.prefix value="scenarios/bologna_joined/state"/>
    </output>

    <report>
        <log value="scenarios/bologna_joined/sumo_log.txt"/>
        <no-step-log value="true"/>
    </report>

    <traci_server>
        <remote-port value="59865"/>
    </traci_server>

    <gui_only>
        <quit-on-end value="false"/>
        <start value="true"/>
        <delay value="500"/>
    </gui_only>

</sumoConfiguration>
-->

<tripinfos xmlns:xsi="http://www.w3.org/2001/XMLSchema-instance" xsi:noNamespaceSchemaLocation="http://sumo.dlr.de/xsd/tripinfo_file.xsd">
    <tripinfo id="Pertini_20_7" depart="15.00" departLane="b63[0]_2" departPos="0.00" departSpeed="0.00" departDelay="0.00" arrival="84.00" arrivalLane="b4[1][1][1]_0" arrivalPos="170.54" arrivalSpeed="14.21" duration="69.00" routeLength="895.82" waitingTime="0.00" waitingCount="0" stopTime="0.00" timeLoss="6.04" rerouteNo="0" devices="tripinfo_Pertini_20_7" vType="passenger1" speedFactor="1.04" vaporized=""/>
    <tripinfo id="Pertini_20_9" depart="19.00" departLane="b63[0]_1" departPos="0.00" departSpeed="0.00" departDelay="0.00" arrival="85.00" arrivalLane="b4[1][1][1]_1" arrivalPos="170.54" arrivalSpeed="14.14" duration="66.00" routeLength="895.82" waitingTime="0.00" waitingCount="0" stopTime="0.00" timeLoss="6.89" rerouteNo="0" devices="tripinfo_Pertini_20_9" vType="passenger2a" speedFactor="1.10" vaporized=""/>
    <tripinfo id="Prati_Capraia_10_7" depart="34.00" departLane="b3[0]_0" departPos="0.00" departSpeed="0.00" departDelay="0.00" arrival="85.00" arrivalLane="b10_0" arrivalPos="223.30" arrivalSpeed="14.18" duration="51.00" routeLength="409.63" waitingTime="10.00" waitingCount="1" stopTime="0.00" timeLoss="21.44" rerouteNo="0" devices="tripinfo_Prati_Capraia_10_7" vType="passenger1" speedFactor="1.06" vaporized=""/>
    <tripinfo id="Pertini_20_11" depart="23.00" departLane="b63[0]_1" departPos="0.00" departSpeed="0.00" departDelay="0.00" arrival="86.00" arrivalLane="b4[1][1][1]_1" arrivalPos="170.54" arrivalSpeed="15.85" duration="63.00" routeLength="895.82" waitingTime="0.00" waitingCount="0" stopTime="0.00" timeLoss="7.63" rerouteNo="0" devices="tripinfo_Pertini_20_11" vType="passenger2a" speedFactor="1.17" vaporized=""/>
