<?xml version="1.0" encoding="UTF-8"?>

<!-- generated on 2026-04-29T21:29:40.113490+01:00 by Eclipse SUMO sumo 1.26.0
<sumoConfiguration xmlns:xsi="http://www.w3.org/2001/XMLSchema-instance" xsi:noNamespaceSchemaLocation="http://sumo.dlr.de/xsd/sumoConfiguration.xsd">

    <input>
        <net-file value="scenarios/bologna_joined/joined_buslanes.net.xml"/>
        <route-files value="scenarios/bologna_joined/joined.rou.xml,scenarios/bologna_joined/joined_busses.rou.xml"/>
        <additional-files value="scenarios/bologna_joined/joined_bus_stops.add.xml,scenarios/bologna_joined/joined_detectors.add.xml,scenarios/bologna_joined/joined_vtypes.add.xml,scenarios/bologna_joined/joined_tls.add.xml"/>
    </input>

    <output>
        <tripinfo-output value="scenarios/bologna_joined/tripinfos.xml"/>
        <save-state.prefix value="scenarios/bologna_joined/state"/>
    </output>

    <processing>
        <collision.action value="warn"/>
        <collision.check-junctions value="true"/>
        <collision.mingap-factor value="0"/>
        <scale value="5.0"/>
    </processing>

    <report>
        <aggregate-warnings value="5"/>
        <log value="sim_logs/sumo.log"/>
        <log.timestamps value="true"/>
        <no-step-log value="true"/>
    </report>

    <traci_server>
        <remote-port value="39741"/>
    </traci_server>

</sumoConfiguration>
-->

<tripinfos xmlns:xsi="http://www.w3.org/2001/XMLSchema-instance" xsi:noNamespaceSchemaLocation="http://sumo.dlr.de/xsd/tripinfo_file.xsd">
    <tripinfo id="Pertini_20_7" depart="15.00" departLane="b63[0]_2" departPos="0.00" departSpeed="0.00" departDelay="0.00" arrival="83.00" arrivalLane="b4[1][1][1]_0" arrivalPos="170.54" arrivalSpeed="13.89" duration="68.00" routeLength="882.71" waitingTime="0.00" waitingCount="0" stopTime="0.00" timeLoss="5.56" rerouteNo="0" devices="tripinfo_Pertini_20_7" vType="passenger3" speedFactor="1.02" vaporized=""/>
    <tripinfo id="Pertini_20_7.1" depart="18.00" departLane="b63[0]_2" departPos="0.00" departSpeed="0.00" departDelay="3.00" arrival="83.00" arrivalLane="b4[1][1][1]_1" arrivalPos="170.54" arrivalSpeed="14.82" duration="65.00" routeLength="882.71" waitingTime="0.00" waitingCount="0" stopTime="0.00" timeLoss="6.53" rerouteNo="0" devices="tripinfo_Pertini_20_7.1" vType="passenger1" speedFactor="1.10" vaporized=""/>
    <tripinfo id="Pertini_20_7.3" depart="23.00" departLane="b63[0]_2" departPos="0.00" departSpeed="0.00" departDelay="8.00" arrival="88.00" arrivalLane="b4[1][1][1]_1" arrivalPos="170.54" arrivalSpeed="15.39" duration="65.00" routeLength="882.71" waitingTime="0.00" waitingCount="0" stopTime="0.00" timeLoss="10.37" rerouteNo="0" devices="tripinfo_Pertini_20_7.3" vType="passenger4" speedFactor="1.18" vaporized=""/>
    <tripinfo id="Pertini_20_7.4" depart="26.00" departLane="b63[0]_2" departPos="0.00" departSpeed="0.00" departDelay="11.00" arrival="90.00" arrivalLane="b4[1][1][1]_1" arrivalPos="170.54" arrivalSpeed="15.37" duration="64.00" routeLength="882.71" waitingTime="0.00" waitingCount="0" stopTime="0.00" timeLoss="7.75" rerouteNo="0" devices="tripinfo_Pertini_20_7.4" vType="passenger1" speedFactor="1.13" vaporized=""/>
    <tripinfo id="Pertini_20_7.2" depart="21.00" departLane="b63[0]_2" departPos="0.00" departSpeed="0.00" departDelay="6.00" arrival="93.00" arrivalLane="b4[1][1][1]_0" arrivalPos="170.54" arrivalSpeed="12.85" duration="72.00" routeLength="882.71" waitingTime="0.00" waitingCount="0" stopTime="0.00" timeLoss="5.77" rerouteNo="0" devices="tripinfo_Pertini_20_7.2" vType="passenger2a" speedFactor="0.97" vaporized=""/>
    <tripinfo id="Prati_Capraia_100_3" depart="14.00" departLane="b3[0]_0" departPos="0.00" departSpeed="0.00" departDelay="0.00" arrival="99.00" arrivalLane="b3[1]b_0" arrivalPos="238.77" arrivalSpeed="12.17" duration="85.00" routeLength="624.48" waitingTime="20.00" waitingCount="1" stopTime="0.00" timeLoss="34.86" rerouteNo="0" devices="tripinfo_Prati_Capraia_100_3" vType="passenger2b" speedFactor="0.90" vaporized=""/>
    <tripinfo id="Pertini_20_9.3" depart="35.00" departLane="b63[0]_2" departPos="0.00" departSpeed="0.00" departDelay="16.00" arrival="100.00" arrivalLane="b4[1][1][1]_1" arrivalPos="170.54" arrivalSpeed="15.73" duration="65.00" routeLength="882.71" waitingTime="0.00" waitingCount="0" stopTime="0.00" timeLoss="10.45" rerouteNo="0" devices="tripinfo_Pertini_20_9.3" vType="passenger1" speedFactor="1.18" vaporized=""/>
    <tripinfo id="Pertini_20_9" depart="29.00" departLane="b63[0]_2" departPos="0.00" departSpeed="0.00" departDelay="10.00" arrival="103.00" arrivalLane="b4[1][1][1]_0" arrivalPos="170.54" arrivalSpeed="12.75" duration="74.00" routeLength="882.71" waitingTime="0.00" waitingCount="0" stopTime="0.00" timeLoss="6.29" rerouteNo="0" devices="tripinfo_Pertini_20_9" vType="passenger3" speedFactor="0.94" vaporized=""/>
    <tripinfo id="Gandhi_80_11" depart="17.00" departLane="b1[0]_0" departPos="0.00" departSpeed="0.00" departDelay="0.00" arrival="107.00" arrivalLane="b21_0" arrivalPos="89.26" arrivalSpeed="11.96" duration="90.00" routeLength="512.45" waitingTime="37.00" waitingCount="1" stopTime="0.00" timeLoss="46.26" rerouteNo="0" devices="tripinfo_Gandhi_80_11" vType="passenger2b" speedFactor="0.89" vaporized=""/>
    <tripinfo id="Pertini_20_10" depart="38.00" departLane="b63[0]_2" departPos="0.00" departSpeed="0.00" departDelay="17.00" arrival="107.00" arrivalLane="b4[1][1][1]_1" arrivalPos="170.54" arrivalSpeed="14.58" duration="69.00" routeLength="882.71" waitingTime="0.00" waitingCount="0" stopTime="0.00" timeLoss="8.18" rerouteNo="0" devices="tripinfo_Pertini_20_10" vType="passenger2a" speedFactor="1.05" vaporized=""/>
    <tripinfo id="Gandhi_80_11.1" depart="19.00" departLane="b1[0]_0" departPos="0.00" departSpeed="0.00" departDelay="2.00" arrival="108.00" arrivalLane="b21_0" arrivalPos="89.26" arrivalSpeed="13.30" duration="89.00" routeLength="512.45" waitingTime="34.00" waitingCount="1" stopTime="0.00" timeLoss="52.03" rerouteNo="0" devices="tripinfo_Gandhi_80_11.1" vType="passenger2a" speedFactor="1.03" vaporized=""/>
    <tripinfo id="Pertini_20_9.1" depart="32.00" departLane="b63[0]_2" departPos="0.00" departSpeed="0.00" departDelay="13.00" arrival="109.00" arrivalLane="b4[1][1][1]_0" arrivalPos="170.54" arrivalSpeed="12.39" duration="77.00" routeLength="882.71" waitingTime="0.00" waitingCount="0" stopTime="0.00" timeLoss="7.00" rerouteNo="0" devices="tripinfo_Pertini_20_9.1" vType="passenger1" speedFactor="0.91" vaporized=""/>
    <tripinfo id="Gandhi_80_11.2" depart="22.00" departLane="b1[0]_0" departPos="0.00" departSpeed="0.00" departDelay="5.00" arrival="110.00" arrivalLane="b21_0" arrivalPos="89.26" arrivalSpeed="12.72" duration="88.00" routeLength="512.45" waitingTime="34.00" waitingCount="1" stopTime="0.00" timeLoss="49.98" rerouteNo="0" devices="tripinfo_Gandhi_80_11.2" vType="passenger1" speedFactor="1.00" vaporized=""/>
    <tripinfo id="Pertini_20_9.4" depart="37.00" departLane="b63[0]_1" departPos="0.00" departSpeed="0.00" departDelay="18.00" arrival="111.00" arrivalLane="b4[1][1][1]_0" arrivalPos="170.54" arrivalSpeed="13.39" duration="74.00" routeLength="882.71" waitingTime="0.00" waitingCount="0" stopTime="0.00" timeLoss="7.82" rerouteNo="0" devices="tripinfo_Pertini_20_9.4" vType="passenger3" speedFactor="0.97" vaporized=""/>
    <tripinfo id="Prati_Capraia_10_7" depart="36.00" departLane="b3[0]_0" departPos="0.00" departSpeed="0.00" departDelay="2.00" arrival="111.00" arrivalLane="b10_0" arrivalPos="223.30" arrivalSpeed="11.09" duration="75.00" routeLength="409.63" waitingTime="0.00" waitingCount="0" stopTime="0.00" timeLoss="40.33" rerouteNo="0" devices="tripinfo_Prati_Capraia_10_7" vType="passenger2a" speedFactor="0.89" vaporized=""/>
    <tripinfo id="Gandhi_80_11.3" depart="25.00" departLane="b1[0]_0" departPos="0.00" departSpeed="0.00" departDelay="8.00" arrival="112.00" arrivalLane="b21_0" arrivalPos="89.26" arrivalSpeed="15.15" duration="87.00" routeLength="512.45" waitingTime="33.00" waitingCount="1" stopTime="0.00" timeLoss="52.43" rerouteNo="0" devices="tripinfo_Gandhi_80_11.3" vType="passenger1" speedFactor="1.12" vaporized=""/>
    <tripinfo id="Prati_Capraia_10_7.1" depart="38.00" departLane="b3[0]_0" departPos="0.00" departSpeed="0.00" departDelay="4.00" arrival="112.00" arrivalLane="b10_0" arrivalPos="223.30" arrivalSpeed="13.01" duration="74.00" routeLength="409.63" waitingTime="0.00" waitingCount="0" stopTime="0.00" timeLoss="47.28" rerouteNo="0" devices="tripinfo_Prati_Capraia_10_7.1" vType="passenger2a" speedFactor="1.13" vaporized=""/>
    <tripinfo id="Prati_Capraia_100_3.1" depart="16.00" departLane="b3[0]_0" departPos="0.00" departSpeed="0.00" departDelay="2.00" arrival="115.00" arrivalLane="b3[1]b_0" arrivalPos="238.77" arrivalSpeed="13.13" duration="99.00" routeLength="624.48" waitingTime="4.00" waitingCount="3" stopTime="0.00" timeLoss="54.72" rerouteNo="0" devices="tripinfo_Prati_Capraia_100_3.1" vType="passenger1" speedFactor="1.02" vaporized=""/>
    <tripinfo id="Gandhi_80_11.4" depart="28.00" departLane="b1[0]_0" departPos="0.00" departSpeed="0.00" departDelay="11.00" arrival="115.00" arrivalLane="b21_0" arrivalPos="89.26" arrivalSpeed="14.16" duration="87.00" routeLength="512.45" waitingTime="30.00" waitingCount="1" stopTime="0.00" timeLoss="52.44" rerouteNo="0" devices="tripinfo_Gandhi_80_11.4" vType="passenger4" speedFactor="1.10" vaporized=""/>
    <tripinfo id="Prati_Capraia_10_7.2" depart="40.00" departLane="b3[0]_0" departPos="0.00" departSpeed="0.00" departDelay="6.00" arrival="116.00" arrivalLane="b10_0" arrivalPos="223.30" arrivalSpeed="11.36" duration="76.00" routeLength="409.63" waitingTime="0.00" waitingCount="0" stopTime="0.00" timeLoss="40.37" rerouteNo="0" devices="tripinfo_Prati_Capraia_10_7.2" vType="passenger2b" speedFactor="0.86" vaporized=""/>
    <tripinfo id="Prati_Capraia_100_4" depart="21.00" departLane="b3[0]_0" departPos="0.00" departSpeed="0.00" departDelay="2.00" arrival="117.00" arrivalLane="b3[1]b_1" arrivalPos="238.77" arrivalSpeed="14.72" duration="96.00" routeLength="624.48" waitingTime="0.00" waitingCount="0" stopTime="0.00" timeLoss="53.01" rerouteNo="0" devices="tripinfo_Prati_Capraia_100_4" vType="passenger2a" speedFactor="1.07" vaporized=""/>
    <tripinfo id="Prati_Capraia_100_4.4" depart="27.00" departLane="b3[0]_0" departPos="0.00" departSpeed="0.00" departDelay="8.00" arrival="118.00" arrivalLane="b3[1]b_1" arrivalPos="238.77" arrivalSpeed="15.00" duration="91.00" routeLength="624.48" waitingTime="0.00" waitingCount="0" stopTime="0.00" timeLoss="51.59" rerouteNo="0" devices="tripinfo_Prati_Capraia_100_4.4" vType="passenger1" speedFactor="1.15" vaporized=""/>
    <tripinfo id="Prati_Capraia_10_7.3" depart="43.00" departLane="b3[0]_0" departPos="0.00" departSpeed="0.00" departDelay="9.00" arrival="118.00" arrivalLane="b10_0" arrivalPos="223.30" arrivalSpeed="11.90" duration="75.00" routeLength="409.63" waitingTime="0.00" waitingCount="0" stopTime="0.00" timeLoss="42.35" rerouteNo="0" devices="tripinfo_Prati_Capraia_10_7.3" vType="passenger1" speedFactor="0.94" vaporized=""/>
    <tripinfo id="Pertini_20_9.2" depart="35.00" departLane="b63[0]_1" departPos="0.00" departSpeed="0.00" departDelay="16.00" arrival="119.00" arrivalLane="b4[1][1][1]_1" arrivalPos="170.54" arrivalSpeed="11.48" duration="84.00" routeLength="882.71" waitingTime="0.00" waitingCount="0" stopTime="0.00" timeLoss="11.96" rerouteNo="0" devices="tripinfo_Pertini_20_9.2" vType="passenger1" speedFactor="0.89" vaporized=""/>
    <tripinfo id="Pertini_20_10.2" depart="40.00" departLane="b63[0]_2" departPos="0.00" departSpeed="0.00" departDelay="19.00" arrival="120.00" arrivalLane="b4[1][1][1]_0" arrivalPos="170.54" arrivalSpeed="12.25" duration="80.00" routeLength="882.71" waitingTime="0.00" waitingCount="0" stopTime="0.00" timeLoss="9.83" rerouteNo="0" devices="tripinfo_Pertini_20_10.2" vType="passenger3" speedFactor="0.92" vaporized=""/>
    <tripinfo id="Pertini_20_10.4" depart="43.00" departLane="b63[0]_2" departPos="0.00" departSpeed="0.00" departDelay="22.00" arrival="120.00" arrivalLane="b4[1][1][1]_1" arrivalPos="170.54" arrivalSpeed="13.33" duration="77.00" routeLength="882.71" waitingTime="0.00" waitingCount="0" stopTime="0.00" timeLoss="13.24" rerouteNo="0" devices="tripinfo_Pertini_20_10.4" vType="passenger4" speedFactor="1.00" vaporized=""/>
    <tripinfo id="Pertini_20_11.3" depart="49.00" departLane="b63[0]_2" departPos="0.00" departSpeed="0.00" departDelay="26.00" arrival="121.00" arrivalLane="b4[1][1][1]_0" arrivalPos="170.54" arrivalSpeed="13.87" duration="72.00" routeLength="882.71" waitingTime="0.00" waitingCount="0" stopTime="0.00" timeLoss="12.02" rerouteNo="0" devices="tripinfo_Pertini_20_11.3" vType="passenger1" speedFactor="1.06" vaporized=""/>
    <tripinfo id="Prati_Capraia_100_5" depart="30.00" departLane="b3[0]_0" departPos="0.00" departSpeed="0.00" departDelay="6.00" arrival="121.00" arrivalLane="b3[1]b_0" arrivalPos="238.77" arrivalSpeed="13.61" duration="91.00" routeLength="624.48" waitingTime="0.00" waitingCount="0" stopTime="0.00" timeLoss="47.52" rerouteNo="0" devices="tripinfo_Prati_Capraia_100_5" vType="passenger4" speedFactor="1.05" vaporized=""/>
    <tripinfo id="Pertini_20_11.1" depart="46.00" departLane="b63[0]_2" departPos="0.00" departSpeed="0.00" departDelay="23.00" arrival="122.00" arrivalLane="b4[1][1][1]_1" arrivalPos="170.54" arrivalSpeed="14.85" duration="76.00" routeLength="882.71" waitingTime="0.00" waitingCount="0" stopTime="0.00" timeLoss="15.89" rerouteNo="0" devices="tripinfo_Pertini_20_11.1" vType="passenger1" speedFactor="1.07" vaporized=""/>
    <tripinfo id="Prati_Capraia_10_7.4" depart="45.00" departLane="b3[0]_0" departPos="0.00" departSpeed="0.00" departDelay="11.00" arrival="122.00" arrivalLane="b10_0" arrivalPos="223.30" arrivalSpeed="12.04" duration="77.00" routeLength="409.63" waitingTime="0.00" waitingCount="0" stopTime="0.00" timeLoss="42.01" rerouteNo="0" devices="tripinfo_Prati_Capraia_10_7.4" vType="passenger1" speedFactor="0.89" vaporized=""/>
    <tripinfo id="Pertini_20_11.4" depart="50.00" departLane="b63[0]_1" departPos="0.00" departSpeed="0.00" departDelay="27.00" arrival="123.00" arrivalLane="b4[1][1][1]_0" arrivalPos="170.54" arrivalSpeed="12.95" duration="73.00" routeLength="882.71" waitingTime="0.00" waitingCount="0" stopTime="0.00" timeLoss="10.32" rerouteNo="0" devices="tripinfo_Pertini_20_11.4" vType="passenger2a" speedFactor="1.01" vaporized=""/>
    <tripinfo id="Prati_Capraia_100_5.3" depart="33.00" departLane="b3[0]_0" departPos="0.00" departSpeed="0.00" departDelay="9.00" arrival="125.00" arrivalLane="b3[1]b_0" arrivalPos="238.77" arrivalSpeed="12.65" duration="92.00" routeLength="624.48" waitingTime="0.00" waitingCount="0" stopTime="0.00" timeLoss="45.47" rerouteNo="0" devices="tripinfo_Prati_Capraia_100_5.3" vType="passenger2a" speedFactor="0.98" vaporized=""/>
    <tripinfo id="Pertini_20_11" depart="45.00" departLane="b63[0]_1" departPos="0.00" departSpeed="0.00" departDelay="22.00" arrival="126.00" arrivalLane="b4[1][1][1]_1" arrivalPos="170.54" arrivalSpeed="12.52" duration="81.00" routeLength="882.71" waitingTime="0.00" waitingCount="0" stopTime="0.00" timeLoss="15.83" rerouteNo="0" devices="tripinfo_Pertini_20_11" vType="passenger2b" speedFactor="0.99" vaporized=""/>
    <tripinfo id="Prati_Capraia_100_5.4" depart="35.00" departLane="b3[0]_1" departPos="0.00" departSpeed="0.00" departDelay="11.00" arrival="129.00" arrivalLane="b3[1]b_0" arrivalPos="238.77" arrivalSpeed="13.89" duration="94.00" routeLength="624.48" waitingTime="1.00" waitingCount="1" stopTime="0.00" timeLoss="50.13" rerouteNo="0" devices="tripinfo_Prati_Capraia_100_5.4" vType="passenger1" speedFactor="1.03" vaporized=""/>
    <tripinfo id="Pertini_20_12.2" depart="55.00" departLane="b63[0]_2" departPos="0.00" departSpeed="0.00" departDelay="30.00" arrival="130.00" arrivalLane="b4[1][1][1]_1" arrivalPos="170.54" arrivalSpeed="13.55" duration="75.00" routeLength="882.71" waitingTime="0.00" waitingCount="0" stopTime="0.00" timeLoss="13.35" rerouteNo="0" devices="tripinfo_Pertini_20_12.2" vType="passenger2b" speedFactor="1.04" vaporized=""/>
    <tripinfo id="Pertini_20_12.4" depart="57.00" departLane="b63[0]_2" departPos="0.00" departSpeed="0.00" departDelay="32.00" arrival="131.00" arrivalLane="b4[1][1][1]_1" arrivalPos="170.54" arrivalSpeed="14.27" duration="74.00" routeLength="882.71" waitingTime="0.00" waitingCount="0" stopTime="0.00" timeLoss="14.22" rerouteNo="0" devices="tripinfo_Pertini_20_12.4" vType="passenger2b" speedFactor="1.07" vaporized=""/>
    <tripinfo id="Gandhi_80_45" depart="70.00" departLane="b1[0]_0" departPos="0.00" departSpeed="0.00" departDelay="0.00" arrival="134.00" arrivalLane="b21_0" arrivalPos="89.26" arrivalSpeed="11.10" duration="64.00" routeLength="512.45" waitingTime="6.00" waitingCount="1" stopTime="0.00" timeLoss="20.52" rerouteNo="0" devices="tripinfo_Gandhi_80_45" vType="passenger1" speedFactor="0.87" vaporized=""/>
    <tripinfo id="Pertini_20_12" depart="52.00" departLane="b63[0]_2" departPos="0.00" departSpeed="0.00" departDelay="27.00" arrival="135.00" arrivalLane="b4[1][1][1]_0" arrivalPos="170.54" arrivalSpeed="11.46" duration="83.00" routeLength="882.71" waitingTime="0.00" waitingCount="0" stopTime="0.00" timeLoss="7.01" rerouteNo="0" devices="tripinfo_Pertini_20_12" vType="passenger5" speedFactor="0.84" vaporized=""/>
    <tripinfo id="Prati_Capraia_100_8" depart="48.00" departLane="b3[0]_0" departPos="0.00" departSpeed="0.00" departDelay="10.00" arrival="136.00" arrivalLane="b3[1]b_0" arrivalPos="238.77" arrivalSpeed="12.99" duration="88.00" routeLength="624.48" waitingTime="0.00" waitingCount="0" stopTime="0.00" timeLoss="43.15" rerouteNo="0" devices="tripinfo_Prati_Capraia_100_8" vType="passenger1" speedFactor="1.02" vaporized=""/>
    <tripinfo id="Prati_Capraia_100_8.3" depart="54.00" departLane="b3[0]_0" departPos="0.00" departSpeed="0.00" departDelay="16.00" arrival="136.00" arrivalLane="b3[1]b_1" arrivalPos="238.77" arrivalSpeed="16.18" duration="82.00" routeLength="624.48" waitingTime="0.00" waitingCount="0" stopTime="0.00" timeLoss="44.49" rerouteNo="0" devices="tripinfo_Prati_Capraia_100_8.3" vType="passenger3" speedFactor="1.20" vaporized=""/>
    <tripinfo id="Gandhi_80_45.1" depart="72.00" departLane="b1[0]_0" departPos="0.00" departSpeed="0.00" departDelay="2.00" arrival="137.00" arrivalLane="b21_0" arrivalPos="89.26" arrivalSpeed="12.12" duration="65.00" routeLength="512.45" waitingTime="5.00" waitingCount="1" stopTime="0.00" timeLoss="21.68" rerouteNo="0" devices="tripinfo_Gandhi_80_45.1" vType="passenger2b" speedFactor="0.89" vaporized=""/>
    <tripinfo id="Gandhi_80_45.2" depart="75.00" departLane="b1[0]_0" departPos="0.00" departSpeed="0.00" departDelay="5.00" arrival="139.00" arrivalLane="b21_0" arrivalPos="89.26" arrivalSpeed="12.68" duration="64.00" routeLength="512.45" waitingTime="4.00" waitingCount="1" stopTime="0.00" timeLoss="23.43" rerouteNo="0" devices="tripinfo_Gandhi_80_45.2" vType="passenger3" speedFactor="0.95" vaporized=""/>
    <tripinfo id="Gandhi_80_45.3" depart="78.00" departLane="b1[0]_0" departPos="0.00" departSpeed="0.00" departDelay="8.00" arrival="140.00" arrivalLane="b21_0" arrivalPos="89.26" arrivalSpeed="14.52" duration="62.00" routeLength="512.45" waitingTime="3.00" waitingCount="1" stopTime="0.00" timeLoss="30.01" rerouteNo="0" devices="tripinfo_Gandhi_80_45.3" vType="passenger1" speedFactor="1.19" vaporized=""/>
    <tripinfo id="Prati_Capraia_100_8.1" depart="51.00" departLane="b3[0]_0" departPos="0.00" departSpeed="0.00" departDelay="13.00" arrival="142.00" arrivalLane="b3[1]b_0" arrivalPos="238.77" arrivalSpeed="13.73" duration="91.00" routeLength="624.48" waitingTime="0.00" waitingCount="0" stopTime="0.00" timeLoss="46.18" rerouteNo="0" devices="tripinfo_Prati_Capraia_100_8.1" vType="passenger1" speedFactor="1.01" vaporized=""/>
    <tripinfo id="Gandhi_80_45.4" depart="81.00" departLane="b1[0]_0" departPos="0.00" departSpeed="0.00" departDelay="11.00" arrival="143.00" arrivalLane="b21_0" arrivalPos="89.26" arrivalSpeed="13.00" duration="62.00" routeLength="512.45" waitingTime="2.00" waitingCount="1" stopTime="0.00" timeLoss="20.85" rerouteNo="0" devices="tripinfo_Gandhi_80_45.4" vType="passenger2a" speedFactor="0.94" vaporized=""/>
    <tripinfo id="Pepoli_10_10" depart="17.00" departLane="a210_0" departPos="0.00" departSpeed="0.00" departDelay="0.00" arrival="146.00" arrivalLane="a204[1][1]_0" arrivalPos="435.51" arrivalSpeed="13.79" duration="129.00" routeLength="1470.65" waitingTime="12.00" waitingCount="1" stopTime="0.00" timeLoss="25.52" rerouteNo="0" devices="tripinfo_Pepoli_10_10" vType="passenger1" speedFactor="1.03" vaporized=""/>
    <tripinfo id="Prati_Capraia_100_9" depart="56.00" departLane="b3[0]_0" departPos="0.00" departSpeed="0.00" departDelay="13.00" arrival="148.00" arrivalLane="b3[1]b_0" arrivalPos="238.77" arrivalSpeed="11.83" duration="92.00" routeLength="624.48" waitingTime="0.00" waitingCount="0" stopTime="0.00" timeLoss="41.02" rerouteNo="0" devices="tripinfo_Prati_Capraia_100_9" vType="passenger1" speedFactor="0.88" vaporized=""/>
    <tripinfo id="Turati_3_2" depart="69.00" departLane="a195_0" departPos="0.00" departSpeed="0.00" departDelay="0.00" arrival="148.00" arrivalLane="a14_0" arrivalPos="77.26" arrivalSpeed="13.38" duration="79.00" routeLength="947.57" waitingTime="0.00" waitingCount="0" stopTime="0.00" timeLoss="9.84" rerouteNo="0" devices="tripinfo_Turati_3_2" vType="ignoring2b" speedFactor="1.00" vaporized=""/>
    <tripinfo id="Prati_Capraia_100_8.2" depart="52.00" departLane="b3[0]_1" departPos="0.00" departSpeed="0.00" departDelay="14.00" arrival="149.00" arrivalLane="b3[1]b_1" arrivalPos="238.77" arrivalSpeed="12.34" duration="97.00" routeLength="624.48" waitingTime="2.00" waitingCount="1" stopTime="0.00" timeLoss="47.04" rerouteNo="0" devices="tripinfo_Prati_Capraia_100_8.2" vType="passenger2b" speedFactor="0.90" vaporized=""/>
    <tripinfo id="Turati_3_2.1" depart="72.00" departLane="a195_0" departPos="0.00" departSpeed="0.00" departDelay="3.00" arrival="152.00" arrivalLane="a14_0" arrivalPos="77.26" arrivalSpeed="12.93" duration="80.00" routeLength="947.57" waitingTime="0.00" waitingCount="0" stopTime="0.00" timeLoss="10.40" rerouteNo="0" devices="tripinfo_Turati_3_2.1" vType="ignoring3" speedFactor="1.00" vaporized=""/>
    <tripinfo id="Pepoli_10_10.2" depart="22.00" departLane="a210_0" departPos="0.00" departSpeed="0.00" departDelay="5.00" arrival="153.00" arrivalLane="a204[1][1]_1" arrivalPos="435.51" arrivalSpeed="13.52" duration="131.00" routeLength="1470.65" waitingTime="0.00" waitingCount="0" stopTime="0.00" timeLoss="28.81" rerouteNo="0" devices="tripinfo_Pepoli_10_10.2" vType="passenger1" speedFactor="1.04" vaporized=""/>
    <tripinfo id="Pepoli_10_10.3" depart="25.00" departLane="a210_0" departPos="0.00" departSpeed="0.00" departDelay="8.00" arrival="155.00" arrivalLane="a204[1][1]_0" arrivalPos="435.51" arrivalSpeed="13.18" duration="130.00" routeLength="1470.65" waitingTime="0.00" waitingCount="0" stopTime="0.00" timeLoss="27.49" rerouteNo="0" devices="tripinfo_Pepoli_10_10.3" vType="passenger3" speedFactor="1.04" vaporized=""/>
    <tripinfo id="Pepoli_8_16" depart="44.00" departLane="a210_0" departPos="0.00" departSpeed="0.00" departDelay="17.00" arrival="155.00" arrivalLane="a134b_0" arrivalPos="156.17" arrivalSpeed="12.34" duration="111.00" routeLength="692.71" waitingTime="42.00" waitingCount="1" stopTime="0.00" timeLoss="57.37" rerouteNo="0" devices="tripinfo_Pepoli_8_16" vType="passenger1" speedFactor="0.96" vaporized=""/>
    <tripinfo id="Turati_3_2.2" depart="74.00" departLane="a195_0" departPos="0.00" departSpeed="0.00" departDelay="5.00" arrival="155.00" arrivalLane="a14_0" arrivalPos="77.26" arrivalSpeed="12.72" duration="81.00" routeLength="947.57" waitingTime="1.00" waitingCount="1" stopTime="0.00" timeLoss="11.55" rerouteNo="0" devices="tripinfo_Turati_3_2.2" vType="ignoring4" speedFactor="1.00" vaporized=""/>
    <tripinfo id="Borgo_20_3" depart="20.00" departLane="b6_1" departPos="0.00" departSpeed="0.00" departDelay="2.00" arrival="156.00" arrivalLane="b4[1][1][1]_1" arrivalPos="170.54" arrivalSpeed="12.11" duration="136.00" routeLength="551.60" waitingTime="81.00" waitingCount="1" stopTime="0.00" timeLoss="92.85" rerouteNo="0" devices="tripinfo_Borgo_20_3" vType="passenger1" speedFactor="0.94" vaporized=""/>
    <tripinfo id="Pepoli_10_11.2" depart="36.00" departLane="a210_0" departPos="0.00" departSpeed="0.00" departDelay="18.00" arrival="156.00" arrivalLane="a204[1][1]_2" arrivalPos="435.51" arrivalSpeed="15.54" duration="120.00" routeLength="1470.65" waitingTime="0.00" waitingCount="0" stopTime="0.00" timeLoss="25.40" rerouteNo="0" devices="tripinfo_Pepoli_10_11.2" vType="passenger2a" speedFactor="1.13" vaporized=""/>
    <tripinfo id="Borgo_20_3.1" depart="23.00" departLane="b6_1" departPos="0.00" departSpeed="0.00" departDelay="5.00" arrival="158.00" arrivalLane="b4[1][1][1]_1" arrivalPos="170.54" arrivalSpeed="14.58" duration="135.00" routeLength="551.60" waitingTime="80.00" waitingCount="1" stopTime="0.00" timeLoss="96.56" rerouteNo="0" devices="tripinfo_Borgo_20_3.1" vType="passenger1" speedFactor="1.07" vaporized=""/>
    <tripinfo id="Turati_3_2.3" depart="78.00" departLane="a195_0" departPos="0.00" departSpeed="0.00" departDelay="9.00" arrival="158.00" arrivalLane="a14_0" arrivalPos="77.26" arrivalSpeed="12.77" duration="80.00" routeLength="947.57" waitingTime="0.00" waitingCount="0" stopTime="0.00" timeLoss="10.06" rerouteNo="0" devices="tripinfo_Turati_3_2.3" vType="ignoring3" speedFactor="1.00" vaporized=""/>
    <tripinfo id="Pepoli_8_16.1" depart="47.00" departLane="a210_0" departPos="0.00" departSpeed="0.00" departDelay="20.00" arrival="159.00" arrivalLane="a134b_0" arrivalPos="156.17" arrivalSpeed="12.12" duration="112.00" routeLength="692.71" waitingTime="42.00" waitingCount="1" stopTime="0.00" timeLoss="55.07" rerouteNo="0" devices="tripinfo_Pepoli_8_16.1" vType="passenger2b" speedFactor="0.90" vaporized=""/>
    <tripinfo id="Pepoli_10_10.1" depart="19.00" departLane="a210_0" departPos="0.00" departSpeed="0.00" departDelay="2.00" arrival="160.00" arrivalLane="a204[1][1]_0" arrivalPos="435.51" arrivalSpeed="10.56" duration="141.00" routeLength="1470.65" waitingTime="0.00" waitingCount="0" stopTime="0.00" timeLoss="14.05" rerouteNo="0" devices="tripinfo_Pepoli_10_10.1" vType="passenger3" speedFactor="0.84" vaporized=""/>
    <tripinfo id="Borgo_20_3.2" depart="26.00" departLane="b6_1" departPos="0.00" departSpeed="0.00" departDelay="8.00" arrival="161.00" arrivalLane="b4[1][1][1]_1" arrivalPos="170.54" arrivalSpeed="11.89" duration="135.00" routeLength="551.60" waitingTime="78.00" waitingCount="1" stopTime="0.00" timeLoss="90.62" rerouteNo="0" devices="tripinfo_Borgo_20_3.2" vType="passenger1" speedFactor="0.92" vaporized=""/>
    <tripinfo id="Pepoli_8_16.2" depart="49.00" departLane="a210_0" departPos="0.00" departSpeed="0.00" departDelay="22.00" arrival="161.00" arrivalLane="a134b_0" arrivalPos="156.17" arrivalSpeed="12.19" duration="112.00" routeLength="692.71" waitingTime="42.00" waitingCount="2" stopTime="0.00" timeLoss="57.60" rerouteNo="0" devices="tripinfo_Pepoli_8_16.2" vType="passenger1" speedFactor="0.93" vaporized=""/>
    <tripinfo id="Turati_3_2.4" depart="80.00" departLane="a195_0" departPos="0.00" departSpeed="0.00" departDelay="11.00" arrival="161.00" arrivalLane="a14_0" arrivalPos="77.26" arrivalSpeed="13.51" duration="81.00" routeLength="947.57" waitingTime="0.00" waitingCount="0" stopTime="0.00" timeLoss="11.23" rerouteNo="0" devices="tripinfo_Turati_3_2.4" vType="ignoring4" speedFactor="1.00" vaporized=""/>
    <tripinfo id="Borgo_20_3.3" depart="29.00" departLane="b6_1" departPos="0.00" departSpeed="0.00" departDelay="11.00" arrival="162.00" arrivalLane="b4[1][1][1]_1" arrivalPos="170.54" arrivalSpeed="14.16" duration="133.00" routeLength="551.60" waitingTime="77.00" waitingCount="1" stopTime="0.00" timeLoss="98.88" rerouteNo="0" devices="tripinfo_Borgo_20_3.3" vType="passenger1" speedFactor="1.18" vaporized=""/>
    <tripinfo id="Pepoli_10_11.1" depart="33.00" departLane="a210_0" departPos="0.00" departSpeed="0.00" departDelay="15.00" arrival="162.00" arrivalLane="a204[1][1]_0" arrivalPos="435.51" arrivalSpeed="12.55" duration="129.00" routeLength="1470.65" waitingTime="0.00" waitingCount="0" stopTime="0.00" timeLoss="12.43" rerouteNo="0" devices="tripinfo_Pepoli_10_11.1" vType="passenger3" speedFactor="0.91" vaporized=""/>
    <tripinfo id="Pepoli_10_11.3" depart="38.00" departLane="a210_0" departPos="0.00" departSpeed="0.00" departDelay="20.00" arrival="162.00" arrivalLane="a204[1][1]_1" arrivalPos="435.51" arrivalSpeed="13.64" duration="124.00" routeLength="1470.65" waitingTime="0.00" waitingCount="0" stopTime="0.00" timeLoss="16.00" rerouteNo="0" devices="tripinfo_Pepoli_10_11.3" vType="passenger2b" speedFactor="0.98" vaporized=""/>
    <tripinfo id="Nigrisoli_50_6" depart="37.00" departLane="b65_0" departPos="0.00" departSpeed="0.00" departDelay="0.00" arrival="162.00" arrivalLane="b35[1][1][1][1]_0" arrivalPos="389.48" arrivalSpeed="13.51" duration="125.00" routeLength="1292.85" waitingTime="15.00" waitingCount="1" stopTime="0.00" timeLoss="30.86" rerouteNo="0" devices="tripinfo_Nigrisoli_50_6" vType="ignoring1" speedFactor="1.00" vaporized=""/>
    <tripinfo id="Pepoli_8_16.3" depart="53.00" departLane="a210_0" departPos="0.00" departSpeed="0.00" departDelay="26.00" arrival="163.00" arrivalLane="a134b_0" arrivalPos="156.17" arrivalSpeed="14.12" duration="110.00" routeLength="692.71" waitingTime="41.00" waitingCount="1" stopTime="0.00" timeLoss="59.70" rerouteNo="0" devices="tripinfo_Pepoli_8_16.3" vType="passenger2b" speedFactor="1.02" vaporized=""/>