<?xml version="1.0" encoding="UTF-8"?>

<!-- generated on 2026-05-03T21:51:10.745574+01:00 by Eclipse SUMO sumo 1.26.0
<sumoConfiguration xmlns:xsi="http://www.w3.org/2001/XMLSchema-instance" xsi:noNamespaceSchemaLocation="http://sumo.dlr.de/xsd/sumoConfiguration.xsd">

    <input>
        <net-file value="/home/vladik/repositories/rl-traffic-agent/scenarios/bologna_joined/joined_buslanes.net.xml"/>
        <route-files value="/home/vladik/repositories/rl-traffic-agent/scenarios/bologna_joined/joined.rou.xml,/home/vladik/repositories/rl-traffic-agent/scenarios/bologna_joined/joined_busses.rou.xml"/>
        <additional-files value="/home/vladik/repositories/rl-traffic-agent/scenarios/bologna_joined/joined_bus_stops.add.xml,/home/vladik/repositories/rl-traffic-agent/scenarios/bologna_joined/joined_detectors.add.xml,/home/vladik/repositories/rl-traffic-agent/scenarios/bologna_joined/joined_vtypes.add.xml,/home/vladik/repositories/rl-traffic-agent/scenarios/bologna_joined/joined_tls.add.xml"/>
    </input>

    <output>
        <tripinfo-output value="/home/vladik/repositories/rl-traffic-agent/scenarios/bologna_joined/tripinfos.xml"/>
        <save-state.prefix value="/home/vladik/repositories/rl-traffic-agent/scenarios/bologna_joined/state"/>
    </output>

    <processing>
        <collision.action value="warn"/>
        <collision.check-junctions value="true"/>
        <collision.mingap-factor value="0"/>
        <scale value="5.0"/>
    </processing>

    <report>
        <aggregate-warnings value="5"/>
        <log value="sim_logs/sumo.log"/>
        <log.timestamps value="true"/>
        <no-step-log value="true"/>
    </report>

    <traci_server>
        <remote-port value="39645"/>
    </traci_server>

</sumoConfiguration>
-->

<tripinfos xmlns:xsi="http://www.w3.org/2001/XMLSchema-instance" xsi:noNamespaceSchemaLocation="http://sumo.dlr.de/xsd/tripinfo_file.xsd">
    <tripinfo id="Pertini_20_7" depart="15.00" departLane="b63[0]_2" departPos="0.00" departSpeed="0.00" departDelay="0.00" arrival="83.00" arrivalLane="b4[1][1][1]_0" arrivalPos="170.54" arrivalSpeed="13.89" duration="68.00" routeLength="882.71" waitingTime="0.00" waitingCount="0" stopTime="0.00" timeLoss="5.56" rerouteNo="0" devices="tripinfo_Pertini_20_7" vType="passenger3" speedFactor="1.02" vaporized=""/>
    <tripinfo id="Pertini_20_7.1" depart="18.00" departLane="b63[0]_2" departPos="0.00" departSpeed="0.00" departDelay="3.00" arrival="83.00" arrivalLane="b4[1][1][1]_1" arrivalPos="170.54" arrivalSpeed="14.82" duration="65.00" routeLength="882.71" waitingTime="0.00" waitingCount="0" stopTime="0.00" timeLoss="6.53" rerouteNo="0" devices="tripinfo_Pertini_20_7.1" vType="passenger1" speedFactor="1.10" vaporized=""/>
    <tripinfo id="Pertini_20_7.3" depart="23.00" departLane="b63[0]_2" departPos="0.00" departSpeed="0.00" departDelay="8.00" arrival="88.00" arrivalLane="b4[1][1][1]_1" arrivalPos="170.54" arrivalSpeed="16.25" duration="65.00" routeLength="882.71" waitingTime="0.00" waitingCount="0" stopTime="0.00" timeLoss="10.32" rerouteNo="0" devices="tripinfo_Pertini_20_7.3" vType="passenger4" speedFactor="1.18" vaporized=""/>
    <tripinfo id="Pertini_20_7.4" depart="26.00" departLane="b63[0]_2" departPos="0.00" departSpeed="0.00" departDelay="11.00" arrival="90.00" arrivalLane="b4[1][1][1]_1" arrivalPos="170.54" arrivalSpeed="15.44" duration="64.00" routeLength="882.71" waitingTime="0.00" waitingCount="0" stopTime="0.00" timeLoss="7.79" rerouteNo="0" devices="tripinfo_Pertini_20_7.4" vType="passenger1" speedFactor="1.13" vaporized=""/>
    <tripinfo id="Pertini_20_7.2" depart="21.00" departLane="b63[0]_2" departPos="0.00" departSpeed="0.00" departDelay="6.00" arrival="93.00" arrivalLane="b4[1][1][1]_0" arrivalPos="170.54" arrivalSpeed="12.85" duration="72.00" routeLength="882.71" waitingTime="0.00" waitingCount="0" stopTime="0.00" timeLoss="5.77" rerouteNo="0" devices="tripinfo_Pertini_20_7.2" vType="passenger2a" speedFactor="0.97" vaporized=""/>
    <tripinfo id="Prati_Capraia_100_3.2" depart="19.00" departLane="b3[0]_1" departPos="0.00" departSpeed="0.00" departDelay="5.00" arrival="95.00" arrivalLane="b3[1]b_1" arrivalPos="238.77" arrivalSpeed="13.85" duration="76.00" routeLength="624.48" waitingTime="19.00" waitingCount="1" stopTime="0.00" timeLoss="34.01" rerouteNo="0" devices="tripinfo_Prati_Capraia_100_3.2" vType="passenger2a" speedFactor="1.08" vaporized=""/>
    <tripinfo id="Prati_Capraia_100_3" depart="14.00" departLane="b3[0]_0" departPos="0.00" departSpeed="0.00" departDelay="0.00" arrival="100.00" arrivalLane="b3[1]b_0" arrivalPos="238.77" arrivalSpeed="11.74" duration="86.00" routeLength="624.48" waitingTime="21.00" waitingCount="1" stopTime="0.00" timeLoss="35.04" rerouteNo="0" devices="tripinfo_Prati_Capraia_100_3" vType="passenger2b" speedFactor="0.90" vaporized=""/>
    <tripinfo id="Prati_Capraia_100_3.4" depart="21.00" departLane="b3[0]_1" departPos="0.00" departSpeed="0.00" departDelay="7.00" arrival="100.00" arrivalLane="b3[1]b_1" arrivalPos="238.77" arrivalSpeed="13.49" duration="79.00" routeLength="624.48" waitingTime="16.00" waitingCount="1" stopTime="0.00" timeLoss="32.66" rerouteNo="0" devices="tripinfo_Prati_Capraia_100_3.4" vType="passenger2b" speedFactor="0.98" vaporized=""/>
    <tripinfo id="Pertini_20_9.3" depart="35.00" departLane="b63[0]_2" departPos="0.00" departSpeed="0.00" departDelay="16.00" arrival="100.00" arrivalLane="b4[1][1][1]_1" arrivalPos="170.54" arrivalSpeed="15.73" duration="65.00" routeLength="882.71" waitingTime="0.00" waitingCount="0" stopTime="0.00" timeLoss="10.33" rerouteNo="0" devices="tripinfo_Pertini_20_9.3" vType="passenger1" speedFactor="1.18" vaporized=""/>
    <tripinfo id="Prati_Capraia_100_3.3" depart="19.00" departLane="b3[0]_0" departPos="0.00" departSpeed="0.00" departDelay="5.00" arrival="102.00" arrivalLane="b3[1]b_0" arrivalPos="238.77" arrivalSpeed="12.76" duration="83.00" routeLength="624.48" waitingTime="16.00" waitingCount="2" stopTime="0.00" timeLoss="36.61" rerouteNo="0" devices="tripinfo_Prati_Capraia_100_3.3" vType="passenger2b" speedFactor="0.98" vaporized=""/>
    <tripinfo id="Prati_Capraia_10_7" depart="36.00" departLane="b3[0]_0" departPos="0.00" departSpeed="0.00" departDelay="2.00" arrival="102.00" arrivalLane="b10_0" arrivalPos="223.30" arrivalSpeed="11.68" duration="66.00" routeLength="409.63" waitingTime="0.00" waitingCount="0" stopTime="0.00" timeLoss="31.70" rerouteNo="0" devices="tripinfo_Prati_Capraia_10_7" vType="passenger2a" speedFactor="0.89" vaporized=""/>
    <tripinfo id="Pertini_20_9" depart="29.00" departLane="b63[0]_2" departPos="0.00" departSpeed="0.00" departDelay="10.00" arrival="103.00" arrivalLane="b4[1][1][1]_0" arrivalPos="170.54" arrivalSpeed="12.85" duration="74.00" routeLength="882.71" waitingTime="0.00" waitingCount="0" stopTime="0.00" timeLoss="6.23" rerouteNo="0" devices="tripinfo_Pertini_20_9" vType="passenger3" speedFactor="0.94" vaporized=""/>
    <tripinfo id="Prati_Capraia_10_7.1" depart="38.00" departLane="b3[0]_0" departPos="0.00" departSpeed="0.00" departDelay="4.00" arrival="104.00" arrivalLane="b10_0" arrivalPos="223.30" arrivalSpeed="14.67" duration="66.00" routeLength="409.63" waitingTime="0.00" waitingCount="0" stopTime="0.00" timeLoss="38.55" rerouteNo="0" devices="tripinfo_Prati_Capraia_10_7.1" vType="passenger2a" speedFactor="1.13" vaporized=""/>
    <tripinfo id="Gandhi_80_11" depart="17.00" departLane="b1[0]_0" departPos="0.00" departSpeed="0.00" departDelay="0.00" arrival="106.00" arrivalLane="b21_0" arrivalPos="89.26" arrivalSpeed="11.87" duration="89.00" routeLength="512.45" waitingTime="37.00" waitingCount="1" stopTime="0.00" timeLoss="45.93" rerouteNo="0" devices="tripinfo_Gandhi_80_11" vType="passenger2b" speedFactor="0.89" vaporized=""/>
    <tripinfo id="Prati_Capraia_100_3.1" depart="16.00" departLane="b3[0]_0" departPos="0.00" departSpeed="0.00" departDelay="2.00" arrival="107.00" arrivalLane="b3[1]b_0" arrivalPos="238.77" arrivalSpeed="13.48" duration="91.00" routeLength="624.48" waitingTime="0.00" waitingCount="0" stopTime="0.00" timeLoss="46.56" rerouteNo="0" devices="tripinfo_Prati_Capraia_100_3.1" vType="passenger1" speedFactor="1.02" vaporized=""/>
    <tripinfo id="Pertini_20_10" depart="38.00" departLane="b63[0]_2" departPos="0.00" departSpeed="0.00" departDelay="17.00" arrival="107.00" arrivalLane="b4[1][1][1]_1" arrivalPos="170.54" arrivalSpeed="14.46" duration="69.00" routeLength="882.71" waitingTime="0.00" waitingCount="0" stopTime="0.00" timeLoss="8.14" rerouteNo="0" devices="tripinfo_Pertini_20_10" vType="passenger2a" speedFactor="1.05" vaporized=""/>
    <tripinfo id="Prati_Capraia_10_7.2" depart="41.00" departLane="b3[0]_0" departPos="0.00" departSpeed="0.00" departDelay="7.00" arrival="107.00" arrivalLane="b10_0" arrivalPos="223.30" arrivalSpeed="11.48" duration="66.00" routeLength="409.63" waitingTime="0.00" waitingCount="0" stopTime="0.00" timeLoss="30.79" rerouteNo="0" devices="tripinfo_Prati_Capraia_10_7.2" vType="passenger2b" speedFactor="0.86" vaporized=""/>
    <tripinfo id="Gandhi_80_11.1" depart="19.00" departLane="b1[0]_0" departPos="0.00" departSpeed="0.00" departDelay="2.00" arrival="108.00" arrivalLane="b21_0" arrivalPos="89.26" arrivalSpeed="14.23" duration="89.00" routeLength="512.45" waitingTime="34.00" waitingCount="1" stopTime="0.00" timeLoss="51.54" rerouteNo="0" devices="tripinfo_Gandhi_80_11.1" vType="passenger2a" speedFactor="1.03" vaporized=""/>
    <tripinfo id="Pertini_20_9.1" depart="32.00" departLane="b63[0]_2" departPos="0.00" departSpeed="0.00" departDelay="13.00" arrival="109.00" arrivalLane="b4[1][1][1]_0" arrivalPos="170.54" arrivalSpeed="12.15" duration="77.00" routeLength="882.71" waitingTime="0.00" waitingCount="0" stopTime="0.00" timeLoss="6.93" rerouteNo="0" devices="tripinfo_Pertini_20_9.1" vType="passenger1" speedFactor="0.91" vaporized=""/>
    <tripinfo id="Prati_Capraia_100_4" depart="21.00" departLane="b3[0]_0" departPos="0.00" departSpeed="0.00" departDelay="2.00" arrival="109.00" arrivalLane="b3[1]b_1" arrivalPos="238.77" arrivalSpeed="14.63" duration="88.00" routeLength="624.48" waitingTime="0.00" waitingCount="0" stopTime="0.00" timeLoss="45.13" rerouteNo="0" devices="tripinfo_Prati_Capraia_100_4" vType="passenger2a" speedFactor="1.07" vaporized=""/>
    <tripinfo id="Prati_Capraia_10_7.3" depart="43.00" departLane="b3[0]_0" departPos="0.00" departSpeed="0.00" departDelay="9.00" arrival="109.00" arrivalLane="b10_0" arrivalPos="223.30" arrivalSpeed="12.19" duration="66.00" routeLength="409.63" waitingTime="0.00" waitingCount="0" stopTime="0.00" timeLoss="33.39" rerouteNo="0" devices="tripinfo_Prati_Capraia_10_7.3" vType="passenger1" speedFactor="0.94" vaporized=""/>
    <tripinfo id="Gandhi_80_11.2" depart="22.00" departLane="b1[0]_0" departPos="0.00" departSpeed="0.00" departDelay="5.00" arrival="110.00" arrivalLane="b21_0" arrivalPos="89.26" arrivalSpeed="13.50" duration="88.00" routeLength="512.45" waitingTime="34.00" waitingCount="1" stopTime="0.00" timeLoss="49.37" rerouteNo="0" devices="tripinfo_Gandhi_80_11.2" vType="passenger1" speedFactor="1.00" vaporized=""/>
    <tripinfo id="Prati_Capraia_100_4.4" depart="27.00" departLane="b3[0]_0" departPos="0.00" departSpeed="0.00" departDelay="8.00" arrival="110.00" arrivalLane="b3[1]b_1" arrivalPos="238.77" arrivalSpeed="15.92" duration="83.00" routeLength="624.48" waitingTime="0.00" waitingCount="0" stopTime="0.00" timeLoss="43.60" rerouteNo="0" devices="tripinfo_Prati_Capraia_100_4.4" vType="passenger1" speedFactor="1.15" vaporized=""/>
    <tripinfo id="Gandhi_80_11.3" depart="25.00" departLane="b1[0]_0" departPos="0.00" departSpeed="0.00" departDelay="8.00" arrival="111.00" arrivalLane="b21_0" arrivalPos="89.26" arrivalSpeed="14.69" duration="86.00" routeLength="512.45" waitingTime="33.00" waitingCount="1" stopTime="0.00" timeLoss="52.20" rerouteNo="0" devices="tripinfo_Gandhi_80_11.3" vType="passenger1" speedFactor="1.12" vaporized=""/>
    <tripinfo id="Pertini_20_9.4" depart="37.00" departLane="b63[0]_1" departPos="0.00" departSpeed="0.00" departDelay="18.00" arrival="111.00" arrivalLane="b4[1][1][1]_0" arrivalPos="170.54" arrivalSpeed="12.17" duration="74.00" routeLength="882.71" waitingTime="0.00" waitingCount="0" stopTime="0.00" timeLoss="7.93" rerouteNo="0" devices="tripinfo_Pertini_20_9.4" vType="passenger3" speedFactor="0.97" vaporized=""/>
    <tripinfo id="Prati_Capraia_10_7.4" depart="46.00" departLane="b3[0]_0" departPos="0.00" departSpeed="0.00" departDelay="12.00" arrival="111.00" arrivalLane="b10_0" arrivalPos="223.30" arrivalSpeed="11.11" duration="65.00" routeLength="409.63" waitingTime="0.00" waitingCount="0" stopTime="0.00" timeLoss="30.82" rerouteNo="0" devices="tripinfo_Prati_Capraia_10_7.4" vType="passenger1" speedFactor="0.89" vaporized=""/>
    <tripinfo id="Prati_Capraia_100_5.3" depart="33.00" departLane="b3[0]_0" departPos="0.00" departSpeed="0.00" departDelay="9.00" arrival="114.00" arrivalLane="b3[1]b_1" arrivalPos="238.77" arrivalSpeed="13.01" duration="81.00" routeLength="624.48" waitingTime="0.00" waitingCount="0" stopTime="0.00" timeLoss="34.26" rerouteNo="0" devices="tripinfo_Prati_Capraia_100_5.3" vType="passenger2a" speedFactor="0.98" vaporized=""/>
    <tripinfo id="Gandhi_80_11.4" depart="28.00" departLane="b1[0]_0" departPos="0.00" departSpeed="0.00" departDelay="11.00" arrival="115.00" arrivalLane="b21_0" arrivalPos="89.26" arrivalSpeed="14.16" duration="87.00" routeLength="512.45" waitingTime="30.00" waitingCount="1" stopTime="0.00" timeLoss="52.01" rerouteNo="0" devices="tripinfo_Gandhi_80_11.4" vType="passenger4" speedFactor="1.10" vaporized=""/>
    <tripinfo id="Pertini_20_10.4" depart="43.00" departLane="b63[0]_2" departPos="0.00" departSpeed="0.00" departDelay="22.00" arrival="118.00" arrivalLane="b4[1][1][1]_1" arrivalPos="170.54" arrivalSpeed="12.72" duration="75.00" routeLength="882.71" waitingTime="0.00" waitingCount="0" stopTime="0.00" timeLoss="10.79" rerouteNo="0" devices="tripinfo_Pertini_20_10.4" vType="passenger4" speedFactor="1.00" vaporized=""/>
    <tripinfo id="Pertini_20_9.2" depart="35.00" departLane="b63[0]_1" departPos="0.00" departSpeed="0.00" departDelay="16.00" arrival="119.00" arrivalLane="b4[1][1][1]_0" arrivalPos="170.54" arrivalSpeed="11.53" duration="84.00" routeLength="882.71" waitingTime="0.00" waitingCount="0" stopTime="0.00" timeLoss="11.99" rerouteNo="0" devices="tripinfo_Pertini_20_9.2" vType="passenger1" speedFactor="0.89" vaporized=""/>
    <tripinfo id="Pertini_20_11.1" depart="46.00" departLane="b63[0]_2" departPos="0.00" departSpeed="0.00" departDelay="23.00" arrival="119.00" arrivalLane="b4[1][1][1]_1" arrivalPos="170.54" arrivalSpeed="14.21" duration="73.00" routeLength="882.71" waitingTime="0.00" waitingCount="0" stopTime="0.00" timeLoss="13.45" rerouteNo="0" devices="tripinfo_Pertini_20_11.1" vType="passenger1" speedFactor="1.07" vaporized=""/>
    <tripinfo id="Pertini_20_10.2" depart="40.00" departLane="b63[0]_2" departPos="0.00" departSpeed="0.00" departDelay="19.00" arrival="120.00" arrivalLane="b4[1][1][1]_0" arrivalPos="170.54" arrivalSpeed="12.59" duration="80.00" routeLength="882.71" waitingTime="0.00" waitingCount="0" stopTime="0.00" timeLoss="10.65" rerouteNo="0" devices="tripinfo_Pertini_20_10.2" vType="passenger3" speedFactor="0.92" vaporized=""/>
    <tripinfo id="Pertini_20_11.3" depart="49.00" departLane="b63[0]_2" departPos="0.00" departSpeed="0.00" departDelay="26.00" arrival="121.00" arrivalLane="b4[1][1][1]_1" arrivalPos="170.54" arrivalSpeed="13.99" duration="72.00" routeLength="882.71" waitingTime="0.00" waitingCount="0" stopTime="0.00" timeLoss="11.72" rerouteNo="0" devices="tripinfo_Pertini_20_11.3" vType="passenger1" speedFactor="1.06" vaporized=""/>
    <tripinfo id="Pertini_20_11.4" depart="50.00" departLane="b63[0]_1" departPos="0.00" departSpeed="0.00" departDelay="27.00" arrival="123.00" arrivalLane="b4[1][1][1]_0" arrivalPos="170.54" arrivalSpeed="12.95" duration="73.00" routeLength="882.71" waitingTime="0.00" waitingCount="0" stopTime="0.00" timeLoss="9.89" rerouteNo="0" devices="tripinfo_Pertini_20_11.4" vType="passenger2a" speedFactor="1.01" vaporized=""/>
    <tripinfo id="Prati_Capraia_100_8.3" depart="54.00" departLane="b3[0]_0" departPos="0.00" departSpeed="0.00" departDelay="16.00" arrival="124.00" arrivalLane="b3[1]b_1" arrivalPos="238.77" arrivalSpeed="15.85" duration="70.00" routeLength="624.48" waitingTime="0.00" waitingCount="0" stopTime="0.00" timeLoss="32.65" rerouteNo="0" devices="tripinfo_Prati_Capraia_100_8.3" vType="passenger3" speedFactor="1.20" vaporized=""/>
    <tripinfo id="Pertini_20_11" depart="45.00" departLane="b63[0]_1" departPos="0.00" departSpeed="0.00" departDelay="22.00" arrival="125.00" arrivalLane="b4[1][1][1]_1" arrivalPos="170.54" arrivalSpeed="12.78" duration="80.00" routeLength="882.71" waitingTime="0.00" waitingCount="0" stopTime="0.00" timeLoss="15.40" rerouteNo="0" devices="tripinfo_Pertini_20_11" vType="passenger2b" speedFactor="0.99" vaporized=""/>
    <tripinfo id="Prati_Capraia_100_8" depart="49.00" departLane="b3[0]_0" departPos="0.00" departSpeed="0.00" departDelay="11.00" arrival="126.00" arrivalLane="b3[1]b_1" arrivalPos="238.77" arrivalSpeed="13.81" duration="77.00" routeLength="624.48" waitingTime="0.00" waitingCount="0" stopTime="0.00" timeLoss="32.48" rerouteNo="0" devices="tripinfo_Prati_Capraia_100_8" vType="passenger1" speedFactor="1.02" vaporized=""/>
    <tripinfo id="ego" depart="0.00" departLane="b3[0]_0" departPos="5.10" departSpeed="0.00" departDelay="0.00" arrival="127.00" arrivalLane="b3[1]b_0" arrivalPos="239.77" arrivalSpeed="8.00" duration="127.00" routeLength="620.38" waitingTime="0.00" waitingCount="0" stopTime="0.00" timeLoss="84.62" rerouteNo="0" devices="tripinfo_ego" vType="egoType" speedFactor="1.06" vaporized=""/>
</tripinfos>
