<?xml version="1.0" encoding="UTF-8"?>

<!-- generated on 2026-04-25T21:57:00.372157+01:00 by Eclipse SUMO sumo 1.26.0
<sumoConfiguration xmlns:xsi="http://www.w3.org/2001/XMLSchema-instance" xsi:noNamespaceSchemaLocation="http://sumo.dlr.de/xsd/sumoConfiguration.xsd">

    <input>
        <net-file value="scenarios/bologna_joined/joined_buslanes.net.xml"/>
        <route-files value="scenarios/bologna_joined/joined.rou.xml,scenarios/bologna_joined/joined_busses.rou.xml"/>
        <additional-files value="scenarios/bologna_joined/joined_bus_stops.add.xml,scenarios/bologna_joined/joined_detectors.add.xml,scenarios/bologna_joined/joined_vtypes.add.xml,scenarios/bologna_joined/joined_tls.add.xml"/>
    </input>

    <output>
        <tripinfo-output value="scenarios/bologna_joined/tripinfos.xml"/>
        <save-state.prefix value="scenarios/bologna_joined/state"/>
    </output>

    <processing>
        <collision.action value="warn"/>
        <collision.check-junctions value="true"/>
        <collision.mingap-factor value="0"/>
    </processing>

    <report>
        <aggregate-warnings value="5"/>
        <log value="sim_logs/sumo.log"/>
        <log.timestamps value="true"/>
        <no-step-log value="true"/>
    </report>

    <traci_server>
        <remote-port value="37323"/>
    </traci_server>

</sumoConfiguration>
-->

<tripinfos xmlns:xsi="http://www.w3.org/2001/XMLSchema-instance" xsi:noNamespaceSchemaLocation="http://sumo.dlr.de/xsd/tripinfo_file.xsd">
    <tripinfo id="Pertini_20_0" depart="0.00" departLane="b63[0]_1" departPos="0.00" departSpeed="0.00" departDelay="0.00" arrival="75.00" arrivalLane="b4[1][1][1]_0" arrivalPos="170.54" arrivalSpeed="14.81" duration="75.00" routeLength="895.82" waitingTime="4.00" waitingCount="1" stopTime="0.00" timeLoss="15.70" rerouteNo="0" devices="tripinfo_Pertini_20_0" vType="passenger2b" speedFactor="1.09" vaporized=""/>
    <tripinfo id="Pertini_20_1" depart="2.00" departLane="b63[0]_2" departPos="0.00" departSpeed="0.00" departDelay="0.00" arrival="75.00" arrivalLane="b4[1][1][1]_1" arrivalPos="170.54" arrivalSpeed="14.06" duration="73.00" routeLength="895.82" waitingTime="0.00" waitingCount="0" stopTime="0.00" timeLoss="9.32" rerouteNo="0" devices="tripinfo_Pertini_20_1" vType="passenger2b" speedFactor="1.02" vaporized=""/>
    <tripinfo id="Pertini_20_2" depart="4.00" departLane="b63[0]_2" departPos="0.00" departSpeed="0.00" departDelay="0.00" arrival="80.00" arrivalLane="b4[1][1][1]_0" arrivalPos="170.54" arrivalSpeed="12.50" duration="76.00" routeLength="895.82" waitingTime="0.00" waitingCount="0" stopTime="0.00" timeLoss="7.32" rerouteNo="0" devices="tripinfo_Pertini_20_2" vType="passenger2b" speedFactor="0.95" vaporized=""/>
    <tripinfo id="Prati_Capraia_10_0" depart="0.00" departLane="b3[0]_0" departPos="0.00" departSpeed="0.00" departDelay="0.00" arrival="81.00" arrivalLane="b10_0" arrivalPos="223.30" arrivalSpeed="12.79" duration="81.00" routeLength="409.63" waitingTime="39.00" waitingCount="1" stopTime="0.00" timeLoss="47.52" rerouteNo="0" devices="tripinfo_Prati_Capraia_10_0" vType="passenger2b" speedFactor="0.92" vaporized=""/>
    <tripinfo id="Prati_Capraia_10_1" depart="4.00" departLane="b3[0]_0" departPos="0.00" departSpeed="0.00" departDelay="0.00" arrival="82.00" arrivalLane="b10_0" arrivalPos="223.30" arrivalSpeed="13.03" duration="78.00" routeLength="409.63" waitingTime="36.00" waitingCount="1" stopTime="0.00" timeLoss="46.33" rerouteNo="0" devices="tripinfo_Prati_Capraia_10_1" vType="passenger1" speedFactor="0.96" vaporized=""/>
    <tripinfo id="Pepoli_8_16" depart="27.00" departLane="a210_0" departPos="0.00" departSpeed="0.00" departDelay="0.00" arrival="82.00" arrivalLane="a134b_0" arrivalPos="156.17" arrivalSpeed="14.90" duration="55.00" routeLength="692.71" waitingTime="0.00" waitingCount="0" stopTime="0.00" timeLoss="8.52" rerouteNo="0" devices="tripinfo_Pepoli_8_16" vType="passenger1" speedFactor="1.10" vaporized=""/>
    <tripinfo id="Certosa_9_0" depart="0.00" departLane="b22[0]_1" departPos="0.00" departSpeed="0.00" departDelay="0.00" arrival="88.00" arrivalLane="b2[1][1][1]b_2" arrivalPos="324.74" arrivalSpeed="15.51" duration="88.00" routeLength="602.57" waitingTime="39.00" waitingCount="1" stopTime="0.00" timeLoss="51.24" rerouteNo="0" devices="tripinfo_Certosa_9_0" vType="passenger2b" speedFactor="1.20" vaporized=""/>
    <tripinfo id="Prati_Capraia_10_7" depart="34.00" departLane="b3[0]_0" departPos="0.00" departSpeed="0.00" departDelay="0.00" arrival="88.00" arrivalLane="b10_0" arrivalPos="223.30" arrivalSpeed="12.93" duration="54.00" routeLength="409.63" waitingTime="12.00" waitingCount="1" stopTime="0.00" timeLoss="23.66" rerouteNo="0" devices="tripinfo_Prati_Capraia_10_7" vType="passenger1" speedFactor="1.01" vaporized=""/>
    <tripinfo id="Pertini_20_9" depart="19.00" departLane="b63[0]_1" departPos="0.00" departSpeed="0.00" departDelay="0.00" arrival="94.00" arrivalLane="b4[1][1][1]_1" arrivalPos="170.54" arrivalSpeed="13.27" duration="75.00" routeLength="895.82" waitingTime="0.00" waitingCount="0" stopTime="0.00" timeLoss="8.01" rerouteNo="0" devices="tripinfo_Pertini_20_9" vType="passenger2b" speedFactor="0.98" vaporized=""/>
    <tripinfo id="Pertini_20_7" depart="15.00" departLane="b63[0]_2" departPos="0.00" departSpeed="0.00" departDelay="0.00" arrival="95.00" arrivalLane="b4[1][1][1]_0" arrivalPos="170.54" arrivalSpeed="11.42" duration="80.00" routeLength="895.82" waitingTime="0.00" waitingCount="0" stopTime="0.00" timeLoss="6.72" rerouteNo="0" devices="tripinfo_Pertini_20_7" vType="passenger3" speedFactor="0.88" vaporized=""/>
    <tripinfo id="Pertini_20_11" depart="23.00" departLane="b63[0]_1" departPos="0.00" departSpeed="0.00" departDelay="0.00" arrival="95.00" arrivalLane="b4[1][1][1]_1" arrivalPos="170.54" arrivalSpeed="14.10" duration="72.00" routeLength="895.82" waitingTime="0.00" waitingCount="0" stopTime="0.00" timeLoss="12.85" rerouteNo="0" devices="tripinfo_Pertini_20_11" vType="passenger2b" speedFactor="1.10" vaporized=""/>
    <tripinfo id="Pertini_20_12" depart="25.00" departLane="b63[0]_2" departPos="0.00" departSpeed="0.00" departDelay="0.00" arrival="97.00" arrivalLane="b4[1][1][1]_0" arrivalPos="170.54" arrivalSpeed="14.71" duration="72.00" routeLength="882.71" waitingTime="0.00" waitingCount="0" stopTime="0.00" timeLoss="20.39" rerouteNo="0" devices="tripinfo_Pertini_20_12" vType="passenger1" speedFactor="1.25" vaporized=""/>
    <tripinfo id="Pertini_20_15" depart="32.00" departLane="b63[0]_2" departPos="0.00" departSpeed="0.00" departDelay="0.00" arrival="97.00" arrivalLane="b4[1][1][1]_1" arrivalPos="170.54" arrivalSpeed="15.38" duration="65.00" routeLength="882.71" waitingTime="0.00" waitingCount="0" stopTime="0.00" timeLoss="7.50" rerouteNo="0" devices="tripinfo_Pertini_20_15" vType="passenger1" speedFactor="1.12" vaporized=""/>
    <tripinfo id="Pertini_20_10" depart="21.00" departLane="b63[0]_2" departPos="0.00" departSpeed="0.00" departDelay="0.00" arrival="98.00" arrivalLane="b4[1][1][1]_0" arrivalPos="170.54" arrivalSpeed="12.37" duration="77.00" routeLength="882.71" waitingTime="0.00" waitingCount="0" stopTime="0.00" timeLoss="10.10" rerouteNo="0" devices="tripinfo_Pertini_20_10" vType="passenger1" speedFactor="0.95" vaporized=""/>
    <tripinfo id="Prati_Capraia_100_3" depart="14.00" departLane="b3[0]_0" departPos="0.00" departSpeed="0.00" departDelay="0.00" arrival="99.00" arrivalLane="b3[1]b_0" arrivalPos="238.77" arrivalSpeed="13.11" duration="85.00" routeLength="624.48" waitingTime="27.00" waitingCount="1" stopTime="0.00" timeLoss="39.62" rerouteNo="0" devices="tripinfo_Prati_Capraia_100_3" vType="passenger5" speedFactor="1.00" vaporized=""/>
    <tripinfo id="Prati_Capraia_100_5" depart="24.00" departLane="b3[0]_0" departPos="0.00" departSpeed="0.00" departDelay="0.00" arrival="99.00" arrivalLane="b3[1]b_1" arrivalPos="238.77" arrivalSpeed="14.81" duration="75.00" routeLength="624.48" waitingTime="21.00" waitingCount="1" stopTime="0.00" timeLoss="32.60" rerouteNo="0" devices="tripinfo_Prati_Capraia_100_5" vType="passenger2b" speedFactor="1.08" vaporized=""/>
    <tripinfo id="Pertini_20_14" depart="30.00" departLane="b63[0]_1" departPos="0.00" departSpeed="0.00" departDelay="0.00" arrival="100.00" arrivalLane="b4[1][1][1]_1" arrivalPos="170.54" arrivalSpeed="13.56" duration="70.00" routeLength="895.82" waitingTime="0.00" waitingCount="0" stopTime="0.00" timeLoss="8.33" rerouteNo="0" devices="tripinfo_Pertini_20_14" vType="passenger4" speedFactor="1.06" vaporized=""/>
    <tripinfo id="Pepoli_8_21" depart="36.00" departLane="a210_0" departPos="0.00" departSpeed="0.00" departDelay="0.00" arrival="101.00" arrivalLane="a134b_0" arrivalPos="156.17" arrivalSpeed="12.25" duration="65.00" routeLength="692.71" waitingTime="0.00" waitingCount="0" stopTime="0.00" timeLoss="7.11" rerouteNo="0" devices="tripinfo_Pepoli_8_21" vType="passenger2b" speedFactor="0.89" vaporized=""/>
    <tripinfo id="Prati_Capraia_100_2" depart="9.00" departLane="b3[0]_1" departPos="0.00" departSpeed="0.00" departDelay="0.00" arrival="102.00" arrivalLane="b3[1]b_0" arrivalPos="238.77" arrivalSpeed="14.47" duration="93.00" routeLength="624.48" waitingTime="36.00" waitingCount="2" stopTime="0.00" timeLoss="51.66" rerouteNo="0" devices="tripinfo_Prati_Capraia_100_2" vType="passenger1" speedFactor="1.09" vaporized=""/>
    <tripinfo id="Gandhi_80_11" depart="17.00" departLane="b1[0]_0" departPos="0.00" departSpeed="0.00" departDelay="0.00" arrival="104.00" arrivalLane="b21_0" arrivalPos="89.26" arrivalSpeed="12.18" duration="87.00" routeLength="512.45" waitingTime="34.00" waitingCount="1" stopTime="0.00" timeLoss="45.48" rerouteNo="0" devices="tripinfo_Gandhi_80_11" vType="passenger1" speedFactor="0.93" vaporized=""/>
    <tripinfo id="Pertini_20_16" depart="34.00" departLane="b63[0]_1" departPos="0.00" departSpeed="0.00" departDelay="0.00" arrival="104.00" arrivalLane="b4[1][1][1]_1" arrivalPos="170.54" arrivalSpeed="13.29" duration="70.00" routeLength="895.82" waitingTime="0.00" waitingCount="0" stopTime="0.00" timeLoss="7.37" rerouteNo="0" devices="tripinfo_Pertini_20_16" vType="passenger3" speedFactor="1.04" vaporized=""/>
    <tripinfo id="Prati_Capraia_100_9" depart="43.00" departLane="b3[0]_0" departPos="0.00" departSpeed="0.00" departDelay="0.00" arrival="106.00" arrivalLane="b3[1]b_0" arrivalPos="238.77" arrivalSpeed="13.05" duration="63.00" routeLength="624.48" waitingTime="4.00" waitingCount="1" stopTime="0.00" timeLoss="16.39" rerouteNo="0" devices="tripinfo_Prati_Capraia_100_9" vType="passenger4" speedFactor="0.98" vaporized=""/>
    <tripinfo id="Prati_Capraia_100_11" depart="53.00" departLane="b3[0]_0" departPos="0.00" departSpeed="0.00" departDelay="0.00" arrival="107.00" arrivalLane="b3[1]b_0" arrivalPos="238.77" arrivalSpeed="15.28" duration="54.00" routeLength="624.48" waitingTime="0.00" waitingCount="0" stopTime="0.00" timeLoss="12.84" rerouteNo="0" devices="tripinfo_Prati_Capraia_100_11" vType="passenger3" speedFactor="1.10" vaporized=""/>
    <tripinfo id="Prati_Capraia_100_4" depart="19.00" departLane="b3[0]_1" departPos="0.00" departSpeed="0.00" departDelay="0.00" arrival="108.00" arrivalLane="b3[1]b_1" arrivalPos="238.77" arrivalSpeed="12.23" duration="89.00" routeLength="624.48" waitingTime="26.00" waitingCount="2" stopTime="0.00" timeLoss="42.29" rerouteNo="0" devices="tripinfo_Prati_Capraia_100_4" vType="passenger2b" speedFactor="0.98" vaporized=""/>
    <tripinfo id="Pertini_20_17" depart="36.00" departLane="b63[0]_2" departPos="0.00" departSpeed="0.00" departDelay="0.00" arrival="109.00" arrivalLane="b4[1][1][1]_0" arrivalPos="170.54" arrivalSpeed="12.30" duration="73.00" routeLength="895.82" waitingTime="0.00" waitingCount="0" stopTime="0.00" timeLoss="6.19" rerouteNo="0" devices="tripinfo_Pertini_20_17" vType="passenger2b" speedFactor="0.97" vaporized=""/>
    <tripinfo id="Pertini_20_18" depart="38.00" departLane="b63[0]_1" departPos="0.00" departSpeed="0.00" departDelay="0.00" arrival="111.00" arrivalLane="b4[1][1][1]_0" arrivalPos="170.54" arrivalSpeed="12.96" duration="73.00" routeLength="895.82" waitingTime="0.00" waitingCount="0" stopTime="0.00" timeLoss="6.76" rerouteNo="0" devices="tripinfo_Pertini_20_18" vType="passenger3" speedFactor="0.98" vaporized=""/>
    <tripinfo id="Prati_Capraia_100_10" depart="48.00" departLane="b3[0]_1" departPos="0.00" departSpeed="0.00" departDelay="0.00" arrival="112.00" arrivalLane="b3[1]b_0" arrivalPos="238.77" arrivalSpeed="12.68" duration="64.00" routeLength="624.48" waitingTime="0.00" waitingCount="0" stopTime="0.00" timeLoss="18.62" rerouteNo="0" devices="tripinfo_Prati_Capraia_100_10" vType="passenger1" speedFactor="1.00" vaporized=""/>
    <tripinfo id="Prati_Capraia_100_13" depart="63.00" departLane="b3[0]_0" departPos="0.00" departSpeed="0.00" departDelay="0.00" arrival="112.00" arrivalLane="b3[1]b_1" arrivalPos="238.77" arrivalSpeed="14.53" duration="49.00" routeLength="624.48" waitingTime="0.00" waitingCount="0" stopTime="0.00" timeLoss="6.61" rerouteNo="0" devices="tripinfo_Prati_Capraia_100_13" vType="passenger2a" speedFactor="1.07" vaporized=""/>
    <tripinfo id="Prati_Capraia_100_8" depart="38.00" departLane="b3[0]_1" departPos="0.00" departSpeed="0.00" departDelay="0.00" arrival="114.00" arrivalLane="b3[1]b_0" arrivalPos="238.77" arrivalSpeed="16.32" duration="76.00" routeLength="624.48" waitingTime="10.00" waitingCount="2" stopTime="0.00" timeLoss="37.02" rerouteNo="0" devices="tripinfo_Prati_Capraia_100_8" vType="passenger4" speedFactor="1.18" vaporized=""/>
    <tripinfo id="Pertini_20_22" depart="47.00" departLane="b63[0]_2" departPos="0.00" departSpeed="0.00" departDelay="0.00" arrival="114.00" arrivalLane="b4[1][1][1]_0" arrivalPos="170.54" arrivalSpeed="15.83" duration="67.00" routeLength="882.71" waitingTime="0.00" waitingCount="0" stopTime="0.00" timeLoss="12.77" rerouteNo="0" devices="tripinfo_Pertini_20_22" vType="passenger1" speedFactor="1.18" vaporized=""/>
    <tripinfo id="Gandhi_80_45" depart="70.00" departLane="b1[0]_0" departPos="0.00" departSpeed="0.00" departDelay="0.00" arrival="116.00" arrivalLane="b21_0" arrivalPos="89.26" arrivalSpeed="13.92" duration="46.00" routeLength="512.45" waitingTime="0.00" waitingCount="0" stopTime="0.00" timeLoss="10.66" rerouteNo="0" devices="tripinfo_Gandhi_80_45" vType="passenger4" speedFactor="1.08" vaporized=""/>
    <tripinfo id="Pertini_20_21" depart="45.00" departLane="b63[0]_1" departPos="0.00" departSpeed="0.00" departDelay="0.00" arrival="119.00" arrivalLane="b4[1][1][1]_0" arrivalPos="170.54" arrivalSpeed="11.75" duration="74.00" routeLength="882.71" waitingTime="0.00" waitingCount="0" stopTime="0.00" timeLoss="6.33" rerouteNo="0" devices="tripinfo_Pertini_20_21" vType="passenger3" speedFactor="0.94" vaporized=""/>
    <tripinfo id="Pertini_20_25" depart="53.00" departLane="b63[0]_1" departPos="0.00" departSpeed="0.00" departDelay="0.00" arrival="121.00" arrivalLane="b4[1][1][1]_0" arrivalPos="170.54" arrivalSpeed="15.71" duration="68.00" routeLength="895.82" waitingTime="0.00" waitingCount="0" stopTime="0.00" timeLoss="12.48" rerouteNo="0" devices="tripinfo_Pertini_20_25" vType="passenger1" speedFactor="1.17" vaporized=""/>
    <tripinfo id="Prati_Capraia_100_12" depart="58.00" departLane="b3[0]_1" departPos="0.00" departSpeed="0.00" departDelay="0.00" arrival="123.00" arrivalLane="b3[1]b_1" arrivalPos="238.77" arrivalSpeed="15.33" duration="65.00" routeLength="624.48" waitingTime="4.00" waitingCount="1" stopTime="0.00" timeLoss="25.15" rerouteNo="0" devices="tripinfo_Prati_Capraia_100_12" vType="passenger4" speedFactor="1.14" vaporized=""/>
    <tripinfo id="Audinot_7_0" depart="0.00" departLane="a131_0" departPos="0.00" departSpeed="0.00" departDelay="0.00" arrival="124.00" arrivalLane="a209_0" arrivalPos="395.59" arrivalSpeed="12.95" duration="124.00" routeLength="873.23" waitingTime="45.00" waitingCount="1" stopTime="0.00" timeLoss="57.74" rerouteNo="0" devices="tripinfo_Audinot_7_0" vType="passenger4" speedFactor="0.98" vaporized=""/>
    <tripinfo id="Prati_Capraia_100_14" depart="68.00" departLane="b3[0]_1" departPos="0.00" departSpeed="0.00" departDelay="0.00" arrival="125.00" arrivalLane="b3[1]b_0" arrivalPos="238.77" arrivalSpeed="11.99" duration="57.00" routeLength="624.48" waitingTime="0.00" waitingCount="0" stopTime="0.00" timeLoss="4.89" rerouteNo="0" devices="tripinfo_Prati_Capraia_100_14" vType="passenger1" speedFactor="0.87" vaporized=""/>
    <tripinfo id="Costa_3_21" depart="55.00" departLane="a78[0]_0" departPos="0.00" departSpeed="0.00" departDelay="1.00" arrival="127.00" arrivalLane="a14_0" arrivalPos="77.26" arrivalSpeed="13.65" duration="72.00" routeLength="850.23" waitingTime="0.00" waitingCount="0" stopTime="0.00" timeLoss="10.20" rerouteNo="0" devices="tripinfo_Costa_3_21" vType="passenger4" speedFactor="1.01" vaporized=""/>
    <tripinfo id="Pertini_20_27" depart="58.00" departLane="b63[0]_1" departPos="0.00" departSpeed="0.00" departDelay="0.00" arrival="127.00" arrivalLane="b4[1][1][1]_1" arrivalPos="170.54" arrivalSpeed="14.86" duration="69.00" routeLength="882.71" waitingTime="0.00" waitingCount="0" stopTime="0.00" timeLoss="13.26" rerouteNo="0" devices="tripinfo_Pertini_20_27" vType="passenger3" speedFactor="1.15" vaporized=""/>
    <tripinfo id="Prati_Capraia_100_16" depart="77.00" departLane="b3[0]_0" departPos="0.00" departSpeed="0.00" departDelay="0.00" arrival="127.00" arrivalLane="b3[1]b_0" arrivalPos="238.77" arrivalSpeed="14.10" duration="50.00" routeLength="624.48" waitingTime="0.00" waitingCount="0" stopTime="0.00" timeLoss="6.05" rerouteNo="0" devices="tripinfo_Prati_Capraia_100_16" vType="passenger2b" speedFactor="1.04" vaporized=""/>
    <tripinfo id="Pertini_20_19" depart="40.00" departLane="b63[0]_2" departPos="0.00" departSpeed="0.00" departDelay="0.00" arrival="128.00" arrivalLane="b4[1][1][1]_0" arrivalPos="170.54" arrivalSpeed="9.82" duration="88.00" routeLength="895.82" waitingTime="0.00" waitingCount="0" stopTime="0.00" timeLoss="7.19" rerouteNo="0" devices="tripinfo_Pertini_20_19" vType="passenger2b" speedFactor="0.80" vaporized=""/>
    <tripinfo id="Prati_Capraia_10_19" depart="92.00" departLane="b3[0]_0" departPos="0.00" departSpeed="0.00" departDelay="0.00" arrival="128.00" arrivalLane="b10_0" arrivalPos="223.30" arrivalSpeed="13.39" duration="36.00" routeLength="409.63" waitingTime="0.00" waitingCount="0" stopTime="0.00" timeLoss="5.64" rerouteNo="0" devices="tripinfo_Prati_Capraia_10_19" vType="passenger3" speedFactor="1.01" vaporized=""/>
    <tripinfo id="Pertini_20_28" depart="60.00" departLane="b63[0]_2" departPos="0.00" departSpeed="0.00" departDelay="0.00" arrival="129.00" arrivalLane="b4[1][1][1]_1" arrivalPos="170.54" arrivalSpeed="15.50" duration="69.00" routeLength="882.71" waitingTime="0.00" waitingCount="0" stopTime="0.00" timeLoss="12.38" rerouteNo="0" devices="tripinfo_Pertini_20_28" vType="passenger1" speedFactor="1.13" vaporized=""/>
    <tripinfo id="Pertini_10_20" depart="43.00" departLane="b63[0]_2" departPos="0.00" departSpeed="0.00" departDelay="0.00" arrival="130.00" arrivalLane="b10_0" arrivalPos="223.30" arrivalSpeed="14.00" duration="87.00" routeLength="935.05" waitingTime="11.00" waitingCount="1" stopTime="0.00" timeLoss="24.21" rerouteNo="0" devices="tripinfo_Pertini_10_20" vType="passenger5" speedFactor="1.09" vaporized=""/>
    <tripinfo id="Pertini_20_26" depart="55.00" departLane="b63[0]_2" departPos="0.00" departSpeed="0.00" departDelay="0.00" arrival="132.00" arrivalLane="b4[1][1][1]_0" arrivalPos="170.54" arrivalSpeed="11.68" duration="77.00" routeLength="895.82" waitingTime="0.00" waitingCount="0" stopTime="0.00" timeLoss="6.28" rerouteNo="0" devices="tripinfo_Pertini_20_26" vType="passenger2a" speedFactor="0.92" vaporized=""/>
    <tripinfo id="Prati_Capraia_100_17" depart="82.00" departLane="b3[0]_1" departPos="0.00" departSpeed="0.00" departDelay="0.00" arrival="132.00" arrivalLane="b3[1]b_0" arrivalPos="238.77" arrivalSpeed="12.83" duration="50.00" routeLength="624.48" waitingTime="0.00" waitingCount="0" stopTime="0.00" timeLoss="4.97" rerouteNo="0" devices="tripinfo_Prati_Capraia_100_17" vType="passenger1" speedFactor="1.00" vaporized=""/>
    <tripinfo id="Pertini_20_30" depart="64.00" departLane="b63[0]_1" departPos="0.00" departSpeed="0.00" departDelay="0.00" arrival="133.00" arrivalLane="b4[1][1][1]_0" arrivalPos="170.54" arrivalSpeed="13.54" duration="69.00" routeLength="895.82" waitingTime="0.00" waitingCount="0" stopTime="0.00" timeLoss="8.05" rerouteNo="0" devices="tripinfo_Pertini_20_30" vType="passenger1" speedFactor="1.06" vaporized=""/>
    <tripinfo id="Pepoli_9_1" depart="1.00" departLane="a210_0" departPos="0.00" departSpeed="0.00" departDelay="0.00" arrival="139.00" arrivalLane="a54_0" arrivalPos="300.28" arrivalSpeed="12.58" duration="138.00" routeLength="1308.68" waitingTime="23.00" waitingCount="1" stopTime="0.00" timeLoss="37.06" rerouteNo="0" devices="tripinfo_Pepoli_9_1" vType="passenger2b" speedFactor="0.94" vaporized=""/>
    <tripinfo id="Prati_Capraia_100_18" depart="87.00" departLane="b3[0]_0" departPos="0.00" departSpeed="0.00" departDelay="0.00" arrival="140.00" arrivalLane="b3[1]b_0" arrivalPos="238.77" arrivalSpeed="13.14" duration="53.00" routeLength="624.48" waitingTime="0.00" waitingCount="0" stopTime="0.00" timeLoss="4.82" rerouteNo="0" devices="tripinfo_Prati_Capraia_100_18" vType="passenger3" speedFactor="0.95" vaporized=""/>
    <tripinfo id="Malvasia_30_15" depart="72.00" departLane="b52_0" departPos="0.00" departSpeed="0.00" departDelay="0.00" arrival="143.00" arrivalLane="b70_0" arrivalPos="59.87" arrivalSpeed="15.82" duration="71.00" routeLength="958.99" waitingTime="0.00" waitingCount="0" stopTime="0.00" timeLoss="11.84" rerouteNo="0" devices="tripinfo_Malvasia_30_15" vType="passenger1" speedFactor="1.19" vaporized=""/>
    <tripinfo id="Borgo_20_3" depart="18.00" departLane="b6_1" departPos="0.00" departSpeed="0.00" departDelay="0.00" arrival="148.00" arrivalLane="b4[1][1][1]_1" arrivalPos="170.54" arrivalSpeed="12.10" duration="130.00" routeLength="551.60" waitingTime="75.00" waitingCount="1" stopTime="0.00" timeLoss="86.22" rerouteNo="0" devices="tripinfo_Borgo_20_3" vType="passenger2a" speedFactor="0.92" vaporized=""/>
    <tripinfo id="Turati_3_2" depart="69.00" departLane="a195_0" departPos="0.00" departSpeed="0.00" departDelay="0.00" arrival="148.00" arrivalLane="a14_0" arrivalPos="77.26" arrivalSpeed="13.79" duration="79.00" routeLength="947.57" waitingTime="0.00" waitingCount="0" stopTime="0.00" timeLoss="9.70" rerouteNo="0" devices="tripinfo_Turati_3_2" vType="ignoring1" speedFactor="1.00" vaporized=""/>
    <tripinfo id="Pepoli_10_4" depart="6.00" departLane="a210_0" departPos="0.00" departSpeed="0.00" departDelay="0.00" arrival="150.00" arrivalLane="a204[1][1]_0" arrivalPos="435.51" arrivalSpeed="13.48" duration="144.00" routeLength="1470.65" waitingTime="20.00" waitingCount="1" stopTime="0.00" timeLoss="37.43" rerouteNo="0" devices="tripinfo_Pepoli_10_4" vType="passenger2a" speedFactor="0.99" vaporized=""/>
    <tripinfo id="Pepoli_10_10" depart="17.00" departLane="a210_0" departPos="0.00" departSpeed="0.00" departDelay="0.00" arrival="150.00" arrivalLane="a204[1][1]_1" arrivalPos="435.51" arrivalSpeed="14.62" duration="133.00" routeLength="1470.65" waitingTime="12.00" waitingCount="1" stopTime="0.00" timeLoss="31.97" rerouteNo="0" devices="tripinfo_Pepoli_10_10" vType="passenger1" speedFactor="1.06" vaporized=""/>
    <tripinfo id="Borgo_20_4" depart="24.00" departLane="b6_1" departPos="0.00" departSpeed="0.00" departDelay="0.00" arrival="150.00" arrivalLane="b4[1][1][1]_1" arrivalPos="170.54" arrivalSpeed="13.26" duration="126.00" routeLength="551.60" waitingTime="70.00" waitingCount="1" stopTime="0.00" timeLoss="83.73" rerouteNo="0" devices="tripinfo_Borgo_20_4" vType="passenger2a" speedFactor="0.97" vaporized=""/>
    <tripinfo id="Borgo_20_6" depart="36.00" departLane="b6_1" departPos="0.00" departSpeed="0.00" departDelay="0.00" arrival="152.00" arrivalLane="b4[1][1][1]_1" arrivalPos="170.54" arrivalSpeed="12.79" duration="116.00" routeLength="551.60" waitingTime="63.00" waitingCount="1" stopTime="0.00" timeLoss="76.22" rerouteNo="0" devices="tripinfo_Borgo_20_6" vType="passenger3" speedFactor="1.01" vaporized=""/>
    <tripinfo id="Pepoli_8_23" depart="39.00" departLane="a210_0" departPos="0.00" departSpeed="0.00" departDelay="0.00" arrival="154.00" arrivalLane="a134b_0" arrivalPos="156.17" arrivalSpeed="12.42" duration="115.00" routeLength="692.71" waitingTime="48.00" waitingCount="1" stopTime="0.00" timeLoss="58.45" rerouteNo="0" devices="tripinfo_Pepoli_8_23" vType="passenger1" speedFactor="0.91" vaporized=""/>
    <tripinfo id="Borgo_20_7" depart="42.00" departLane="b6_1" departPos="0.00" departSpeed="0.00" departDelay="0.00" arrival="154.00" arrivalLane="b4[1][1][1]_1" arrivalPos="170.54" arrivalSpeed="15.35" duration="112.00" routeLength="551.60" waitingTime="61.00" waitingCount="1" stopTime="0.00" timeLoss="75.66" rerouteNo="0" devices="tripinfo_Borgo_20_7" vType="passenger2a" speedFactor="1.13" vaporized=""/>
    <tripinfo id="Pepoli_8_25" depart="42.00" departLane="a210_0" departPos="0.00" departSpeed="0.00" departDelay="0.00" arrival="155.00" arrivalLane="a134b_0" arrivalPos="156.17" arrivalSpeed="13.04" duration="113.00" routeLength="692.71" waitingTime="46.00" waitingCount="1" stopTime="0.00" timeLoss="61.33" rerouteNo="0" devices="tripinfo_Pepoli_8_25" vType="passenger2b" speedFactor="0.98" vaporized=""/>
    <tripinfo id="Pepoli_3_0" depart="0.00" departLane="a210_2" departPos="0.00" departSpeed="0.00" departDelay="0.00" arrival="156.00" arrivalLane="a14_0" arrivalPos="77.26" arrivalSpeed="12.91" duration="156.00" routeLength="1941.55" waitingTime="0.00" waitingCount="0" stopTime="0.00" timeLoss="14.49" rerouteNo="0" devices="tripinfo_Pepoli_3_0" vType="ignoring1" speedFactor="1.00" vaporized=""/>
    <tripinfo id="Borgo_100_0" depart="0.00" departLane="b6_0" departPos="0.00" departSpeed="0.00" departDelay="0.00" arrival="159.00" arrivalLane="b3[1]b_0" arrivalPos="238.77" arrivalSpeed="14.48" duration="159.00" routeLength="797.07" waitingTime="93.00" waitingCount="1" stopTime="0.00" timeLoss="104.51" rerouteNo="0" devices="tripinfo_Borgo_100_0" vType="passenger1" speedFactor="1.08" vaporized=""/>
    <tripinfo id="Pepoli_10_11" depart="19.00" departLane="a210_0" departPos="0.00" departSpeed="0.00" departDelay="1.00" arrival="159.00" arrivalLane="a204[1][1]_0" arrivalPos="435.51" arrivalSpeed="11.13" duration="140.00" routeLength="1470.65" waitingTime="5.00" waitingCount="1" stopTime="0.00" timeLoss="21.30" rerouteNo="0" devices="tripinfo_Pepoli_10_11" vType="passenger2b" speedFactor="0.90" vaporized=""/>
    <tripinfo id="Pepoli_10_18" depart="30.00" departLane="a210_0" departPos="0.00" departSpeed="0.00" departDelay="0.00" arrival="159.00" arrivalLane="a204[1][1]_1" arrivalPos="435.51" arrivalSpeed="12.33" duration="129.00" routeLength="1470.65" waitingTime="0.00" waitingCount="0" stopTime="0.00" timeLoss="13.74" rerouteNo="0" devices="tripinfo_Pepoli_10_18" vType="passenger4" speedFactor="0.92" vaporized=""/>
    <tripinfo id="Borgo_20_9" depart="54.00" departLane="b6_1" departPos="0.00" departSpeed="0.00" departDelay="0.00" arrival="159.00" arrivalLane="b4[1][1][1]_1" arrivalPos="170.54" arrivalSpeed="12.67" duration="105.00" routeLength="551.60" waitingTime="50.00" waitingCount="1" stopTime="0.00" timeLoss="62.97" rerouteNo="0" devices="tripinfo_Borgo_20_9" vType="passenger1" speedFactor="0.97" vaporized=""/>
    <tripinfo id="Pepoli_3_2" depart="3.00" departLane="a210_2" departPos="0.00" departSpeed="0.00" departDelay="0.00" arrival="160.00" arrivalLane="a14_0" arrivalPos="77.26" arrivalSpeed="13.31" duration="157.00" routeLength="1941.55" waitingTime="0.00" waitingCount="0" stopTime="0.00" timeLoss="15.33" rerouteNo="0" devices="tripinfo_Pepoli_3_2" vType="ignoring1" speedFactor="1.00" vaporized=""/>
    <tripinfo id="Pepoli_10_22" depart="37.00" departLane="a210_1" departPos="0.00" departSpeed="0.00" departDelay="0.00" arrival="160.00" arrivalLane="a204[1][1]_0" arrivalPos="435.51" arrivalSpeed="13.20" duration="123.00" routeLength="1470.65" waitingTime="0.00" waitingCount="0" stopTime="0.00" timeLoss="17.39" rerouteNo="0" devices="tripinfo_Pepoli_10_22" vType="passenger1" speedFactor="1.00" vaporized=""/>
    <tripinfo id="Borgo_20_13" depart="79.00" departLane="b6_1" departPos="0.00" departSpeed="0.00" departDelay="0.00" arrival="160.00" arrivalLane="b4[1][1][1]_1" arrivalPos="170.54" arrivalSpeed="14.49" duration="81.00" routeLength="551.60" waitingTime="31.00" waitingCount="1" stopTime="0.00" timeLoss="45.42" rerouteNo="0" devices="tripinfo_Borgo_20_13" vType="passenger2b" speedFactor="1.13" vaporized=""/>
    <tripinfo id="Borgo_100_2" depart="12.00" departLane="b6_0" departPos="0.00" departSpeed="0.00" departDelay="0.00" arrival="161.00" arrivalLane="b3[1]b_0" arrivalPos="238.77" arrivalSpeed="15.24" duration="149.00" routeLength="797.07" waitingTime="82.00" waitingCount="1" stopTime="0.00" timeLoss="95.26" rerouteNo="0" devices="tripinfo_Borgo_100_2" vType="passenger5" speedFactor="1.10" vaporized=""/>
    <tripinfo id="Nigrisoli_50_6" depart="37.00" departLane="b65_0" departPos="0.00" departSpeed="0.00" departDelay="0.00" arrival="161.00" arrivalLane="b35[1][1][1][1]_0" arrivalPos="389.48" arrivalSpeed="13.57" duration="124.00" routeLength="1292.85" waitingTime="14.00" waitingCount="1" stopTime="0.00" timeLoss="30.44" rerouteNo="0" devices="tripinfo_Nigrisoli_50_6" vType="ignoring1" speedFactor="1.00" vaporized=""/>